# vtk DataFile Version 2.0
Unstructured Grid Example
ASCII
 
DATASET UNSTRUCTURED_GRID
POINTS 746 double
-0.1 -4.31408e-32 3
-0.1 -4.31408e-32 -3
0.451249 -1.35017e-16 -2.94892
0.983725 -2.65436e-16 -2.79742
1.4793 -3.86816e-16 -2.55065
1.92109 -4.95024e-16 -2.21703
2.29405 -5.86374e-16 -1.8079
2.58549 -6.57755e-16 -1.33722
2.78548 -7.06738e-16 -0.820989
2.8872 -7.31654e-16 -0.276805
2.8872 -7.31654e-16 0.276805
2.78548 -7.06738e-16 0.820989
2.58549 -6.57755e-16 1.33722
2.29405 -5.86374e-16 1.8079
1.92109 -4.95024e-16 2.21703
1.4793 -3.86816e-16 2.55065
0.983725 -2.65436e-16 2.79742
0.451249 -1.35017e-16 2.94892
1.67707 0.507022 2.36325
2.86173 -0.477627 1.26446e-14
0.550981 -0.500246 -2.88548
1.68473 -0.478754 2.36337
1.7028 -0.513763 -2.34222
2.81113 0.478754 0.544184
2.41342 0.485962 -1.56414
0.710467 0.478754 -2.8485
0.173258 -0.478754 2.94892
2.41564 0.483376 1.56138
2.66294 -0.47839 -1.06645
2.66157 -0.478754 1.06984
2.81113 0.478754 -0.544184
1.71701 0.514421 -2.33106
1.13168 -0.560183 -2.67753
2.08861 0.478754 1.99519
2.81225 -0.479457 0.537534
2.81193 -0.47171 -0.546018
1.22008 -0.478754 2.65107
2.41481 -0.474643 -1.56539
1.37417 -0.979324 -2.42235
2.74196 -0.924013 -0.263546
2.45462 -0.951796 -1.25219
2.64051 -0.943686 0.774
2.44162 -0.935959 1.29002
2.37552 -1.38614 0.974891
1.39852 -0.947141 2.4202
2.14361 -1.3753 1.44041
1.82932 -0.950597 -2.09144
1.522 -1.41424 -2.09023
1.03993 -1.41979 -2.38427
1.15578 -1.82397 -2.02389
2.03017 -1.79294 1.11702
2.22837 -1.78809 0.617581
1.84374 -2.15618 0.75681
1.60515 -2.11941 1.26514
1.38994 -2.45302 0.87337
1.12809 -2.3794 1.35287
1.59758 -2.44639 0.365229
1.11709 -2.70204 0.466533
1.28648 -2.66008 -0.0406597
1.67493 -2.41177 -0.181684
1.60562 -1.78585 -1.7034
1.2211 -2.16947 -1.59627
0.79448 -2.8632 0.0446612
0.595717 -2.86437 0.557998
0.948734 -2.77365 -0.455024
1.31684 -2.0111 1.71699
0.811832 -2.22794 1.79021
1.6589 -2.08419 -1.24997
0.982303 -1.82084 2.12442
0.461965 -2.00688 2.15792
0.27884 -2.37762 1.78981
-0.0791053 -2.11891 2.12363
-0.267112 -2.49778 1.65322
0.261614 -2.97521 0.131773
0.749155 -2.17331 -1.88565
0.0990154 -1.71275 2.45497
-0.445232 -1.83665 2.34682
0.0521056 -2.92652 0.642149
0.811992 -2.49925 -1.38637
0.308911 -2.44538 -1.68906
-0.286139 -2.98707 0.206817
0.251424 -2.09751 -2.11588
-0.195348 -2.33058 -1.88662
-0.242594 -1.95241 -2.27327
-0.148353 -2.64197 -1.42044
-0.643646 -2.47997 -1.59818
-0.583836 -2.74288 -1.11467
-1.07811 -2.54058 -1.26046
-1.12485 -2.23456 -1.71943
-1.54211 -2.25417 -1.35612
-1.56767 -1.9096 -1.78868
-1.47516 -2.51968 -0.871854
-0.4959 -2.88765 0.710443
-0.810556 -2.90184 0.272855
-1.02925 -2.74867 0.762447
-1.34033 -2.72173 0.231943
-1.89911 -2.20567 -0.947737
-1.52917 -2.52166 0.773759
-1.83502 -2.42431 0.335307
-1.98 -2.19266 0.811075
1.80552 0.954752 2.11126
0.173258 0.478754 2.94892
-2.25135 -2.06275 0.341694
-1.66272 -2.24825 1.22608
1.3548 0.970306 2.43763
1.49298 1.41254 2.11356
1.01079 1.40327 2.40769
-2.36481 -1.79469 0.806032
-2.59171 -1.63427 0.347171
-2.6751 -1.33716 0.762132
-2.85328 -1.14939 0.313585
-2.89286 -0.829008 0.716003
-3.02362 -0.626386 0.245077
-3.01076 -0.287494 0.666937
-3.09368 -0.081335 0.17677
1.11799 1.81569 2.05421
-3.02763 0.258472 0.601795
-3.06225 0.464878 0.0947187
-2.94573 0.798824 0.513499
-2.93057 0.993928 0.00232402
-2.76891 1.31144 0.396299
-2.70364 1.48628 -0.109616
-2.49904 1.77788 0.289374
-2.38796 1.92867 -0.213239
-2.55622 1.60439 -0.626842
-2.19965 2.01624 -0.725429
-2.32942 1.65996 -1.1288
-1.99281 2.31055 -0.280363
-1.77109 2.35869 -0.802501
-1.53334 2.61284 -0.344408
-1.28534 2.61524 -0.869181
-2.82721 -0.487583 1.15091
-2.71059 1.13691 0.944598
-1.02568 2.82165 -0.425945
-0.765456 2.78397 -0.898158
-1.00276 2.52912 -1.33738
-1.25403 2.76812 0.0755246
0.62336 1.78404 2.30086
-0.485665 2.94015 -0.454718
-0.187979 2.82728 -0.999381
0.0711257 2.95854 -0.466635
0.36847 2.81859 -0.914375
0.615074 2.87991 -0.441366
-3.08527 0.122075 -0.270628
1.55132 1.78665 1.75529
0.887523 2.69335 -0.877884
0.640653 2.59147 -1.31747
0.330807 2.96882 0.0227008
1.13853 2.7034 -0.397052
1.3843 2.46913 -0.836799
1.61865 2.4358 -0.336345
0.713867 2.16552 1.91001
0.206048 2.09996 2.1205
-2.92786 -0.97612 -0.224474
-2.40386 -1.49497 1.20718
1.83901 2.15059 -0.784347
1.57365 2.15318 -1.25009
2.04114 2.08594 -0.253744
1.35009 2.62447 0.0969973
0.286937 2.44481 1.69504
-0.228258 2.34719 1.86393
-0.311365 1.96821 2.25422
-0.739254 2.16061 1.98069
-0.820545 1.75477 2.32413
-1.23575 1.92184 2.00415
-1.29205 1.46241 2.33247
-0.12367 2.66153 1.38408
-1.14434 2.29913 1.61967
-1.61724 2.01088 1.62921
-2.64576 1.22008 -1.01514
-2.3777 1.26007 -1.49142
-2.65552 0.79199 -1.35722
-2.34361 0.803146 -1.82241
-2.57734 0.328368 -1.65981
-2.22753 0.331974 -2.08888
-1.95626 0.797005 -2.2179
-1.82323 0.324575 -2.43416
-1.50412 0.771612 -2.53635
-1.32713 0.281405 -2.72304
-1.6038 -0.179199 -2.58969
-2.42538 -0.147442 -1.88968
-1.00269 0.727837 -2.76684
-1.15987 1.20517 -2.53461
-0.641581 1.1448 -2.71958
-0.785015 1.60195 -2.44224
-0.256193 1.51799 -2.58289
-1.1015 -0.21481 -2.81972
-1.35666 -0.67203 -2.63992
-0.392404 1.94835 -2.26239
0.143855 1.84654 -2.35177
-2.02293 1.66581 -1.58979
-0.834975 -0.700026 -2.82308
2.22437 1.76328 -0.698665
0.769765 2.47173 1.46085
2.37435 1.69005 -0.146132
2.16521 1.94861 0.267865
-0.857308 1.26503 2.6127
-1.31822 0.961749 2.56729
-1.73227 1.13831 2.24499
-1.74493 0.622815 2.43029
-1.29543 0.429482 2.71781
-1.68688 0.0783428 2.54474
-1.22445 -0.116154 2.77887
-1.59262 -0.466968 2.56009
-2.09775 0.262486 2.22263
-1.10772 -0.656457 2.74837
-1.45442 -0.997626 2.48401
-1.91487 -0.79556 2.25241
-2.73279 -0.153394 -1.43
-2.53218 -0.627873 -1.6402
-1.07303 -1.14547 -2.59637
-1.74945 -1.31082 2.13566
-1.50779 2.37108 1.18157
2.45464 1.52769 0.374151
2.20772 1.74977 0.78278
-0.118176 -2.85423 -0.923611
-1.59027 -1.13996 -2.34085
-0.353364 -1.47254 2.60143
-1.95539 2.03741 1.18595
-1.84266 2.34059 0.696268
-0.53668 -1.15762 -2.73299
-2.47087 -1.83295 -0.138864
2.46919 1.29306 0.85281
0.914101 -1.00253 2.63942
0.275758 1.37548 -2.63948
0.666932 1.66456 -2.37509
1.86959 2.16159 0.6695
-2.04216 1.66991 1.56186
-1.12901 -1.85441 -2.12186
-1.02628 2.60342 1.168
0.190053 -1.67692 -2.47059
-0.846017 0.249568 2.89503
0.500404 1.34429 2.61389
-2.79732 -0.626313 -1.15421
-2.55513 -1.08979 -1.33592
-1.28832 1.63822 -2.21453
0.00450641 2.23251 -2.00124
2.5477 1.31692 -0.505399
2.33933 1.30555 -1.15983
-0.611124 -2.94652 -0.238282
-2.25572 -1.0797 -1.78526
-1.84379 -0.649246 -2.35323
-2.23146 -1.51992 -1.46518
-2.5286 -1.47782 -0.958088
-1.27928 -1.50521 2.31163
1.99497 -1.69603 -1.31704
2.0061 -1.95955 -0.851186
-0.315598 -0.787476 -2.88676
0.0286152 -1.19758 -2.74759
0.875121 -1.03773 -2.6405
2.1719 -0.953029 1.71179
2.16642 1.49708 1.27362
0.377375 -2.76919 1.05056
-2.87119 0.748878 -0.87161
-1.5341 -1.78218 1.94092
-1.80344 -2.42205 -0.481655
0.792609 1.1793 -2.61007
1.16953 1.44396 -2.30288
1.02637 1.90253 -2.02773
1.5084 1.6532 -1.91833
1.46407 -1.56717 2.02427
-2.18016 -1.09067 1.86638
-2.31213 -0.559213 1.94776
-0.492293 0.68548 -2.89417
-0.574688 2.37556 -1.76957
-0.126878 2.55549 -1.57123
2.35369 -1.44839 -0.938927
2.33273 -1.70125 -0.433101
1.62685 1.16804 -2.15724
1.96206 1.4039 -1.66643
2.05264 0.84784 -1.90979
1.27579 0.897099 -2.51046
-0.684827 -2.69023 1.19191
-1.38872 -2.68597 -0.35325
-2.34288 1.64661 1.12168
-2.39036 1.23714 1.49122
-2.64252 0.754048 1.40249
-2.11996 0.781081 2.07597
0.285183 -1.27842 2.6865
-1.00436 -1.97062 2.07335
2.5875 0.933657 -0.951659
-2.93742 -0.164411 -0.960224
1.61729 -2.33374 -0.77753
-2.47333 0.408284 1.78902
-2.53902 -0.840148 1.53145
1.08132 -1.39703 2.37756
1.92396 1.35616 1.75055
-0.765357 -1.56242 -2.47308
-1.34808 -2.19385 1.62152
2.40434 1.0038 1.31174
1.16105 0.50792 2.67428
2.27213 1.02182 -1.52607
1.9698 1.78875 -1.23138
2.10546 -0.485002 -1.97502
-1.88761 -1.48444 -1.8976
2.6965 1.01466 0.387358
2.66498 0.455499 1.07116
2.84602 0.565124 -0.0401512
2.72101 1.01314 -0.12431
0.173258 0.478754 -2.94892
0.471298 0.936757 -2.79215
0.710467 -0.478754 2.8485
2.09848 -0.495882 1.9801
-0.0901754 1.111 -2.78668
1.79225 -1.07059 2.06718
-2.96739 -0.584441 -0.66068
2.52464 -1.3753 0.468827
-2.78056 -1.05643 -0.835806
-2.69631 -1.43749 -0.439095
1.7712 -1.74537 1.56598
1.98877 -2.14343 0.206791
0.893319 -2.66383 0.957776
0.472165 -2.92218 -0.365385
0.661802 -2.76904 -0.867215
1.13636 -2.59069 -0.871629
-0.0711257 -2.97647 -0.37389
-2.08577 -0.162083 -2.24287
-2.83118 0.322666 -1.19857
-2.89664 0.059117 1.08412
-2.66128 -0.133392 1.5563
-2.0441 -0.274882 2.26824
-2.0691 -1.89061 1.24428
-2.05413 -1.56607 1.6519
1.7877 2.32563 0.167387
1.11832 2.41224 -1.30261
-0.146739 -2.78177 1.12231
0.861441 2.84125 0.0541559
0.570292 2.87964 0.508293
0.0291899 2.95754 0.48606
0.239213 2.82938 0.937842
-0.309361 2.86311 0.871063
-0.520161 2.93746 0.441331
-0.221534 2.99754 0.00199584
-0.721246 -0.299009 2.9197
-0.590528 -0.831108 2.84054
-0.964137 -1.17578 2.62122
-0.917048 1.99322 -2.08794
-1.37549 2.00939 -1.82633
-2.83033 1.13738 -0.501645
-0.965788 -2.79393 -0.666624
0.533066 2.08494 -2.0621
-2.14254 2.1834 0.246571
-1.95492 2.03607 -1.18899
-1.47134 2.30433 -1.34516
1.87235 1.93877 1.16232
1.56597 2.27978 1.0135
-0.56491 -0.23495 -2.95443
-1.18566 -2.51642 1.22023
-2.25598 1.9606 0.712597
-1.71212 2.52287 0.190193
-1.33001 2.66655 0.613657
-2.20124 -0.623702 -2.04836
-2.87235 0.562132 0.999043
-1.61933 1.23021 -2.27557
-2.01043 1.26931 -1.93368
-0.822154 0.222583 -2.90327
-0.867674 0.772248 2.79541
-0.408095 1.07171 2.78505
-0.382315 1.54081 2.55856
-1.7012 1.62306 1.94983
-0.650564 2.49362 1.5744
-0.694452 -2.13337 -2.0237
0.122789 1.68214 2.47402
0.681359 -1.78877 -2.27811
1.15692 2.17974 1.63368
1.93189 -1.36105 -1.73752
2.4293 -0.48721 1.53795
0.873128 0.939931 2.6776
2.73944 -0.934705 0.252786
-0.859043 -2.39427 1.64053
0.70867 2.712 0.995551
2.3305 -1.7567 0.0816573
0.847983 2.28537 -1.69658
2.64071 -0.951312 -0.763896
-0.538848 -2.21541 1.97469
[...]
POINT_DATA 746
SCALARS sample_scalars double
LOOKUP_TABLE default
0.402715
0.55361
0.55361
0.55361
0.558333
0.572463
0.600336
0.635004
0.675402
0.684911
0.671891
0.620488
0.608704
0.529116
0.467231
0.424774
0.452049
0.441883
0.452244
0.694463
0.445311
0.431546
0.646949
0.654591
0.646365
0.475301
0.414693
0.54104
0.695412
0.551169
0.662497
0.612207
0.609229
0.496258
0.652787
0.684987
0.449641
0.681136
0.597073
0.711923
0.701377
0.593889
0.4923
0.523927
0.448767
0.473425
0.663186
0.584041
0.445995
0.449362
0.511543
0.547282
0.56378
0.495299
0.520695
0.47356
0.564873
0.516207
0.522026
0.576707
0.588758
0.472252
0.47118
0.414774
0.485998
0.44524
0.438534
0.59552
0.39757
0.374192
0.376985
0.33344
0.327198
0.411341
0.31082
0.375019
0.376258
0.395473
0.363902
0.202872
0.310679
0.140118
0.106298
0.0296186
0.178362
0.0909484
0.185731
0.088408
0.00766273
0.0597427
0.03182
0.137616
0.313757
0.301175
0.290346
0.222326
0.0979055
0.256012
0.251593
0.230013
0.428186
0.415077
0.186887
0.262866
0.453028
0.512712
0.457582
0.213352
0.201044
0.196048
0.150731
0.192009
0.139076
0.15474
0.117002
0.469965
0.131096
0.0924788
0.172156
0.0891986
0.16312
0.0893568
0.12361
0.0952874
0.0633205
0.0429848
0.00278313
0.125141
0.0661632
0.13695
0.0917425
0.230515
0.194042
0.206513
0.186614
0.0318316
0.206695
0.471619
0.264668
0.238367
0.315547
0.368113
0.397071
0.051119
0.524584
0.412254
0.341479
0.368182
0.445155
0.443672
0.498864
0.505539
0.433198
0.0661718
0.235662
0.517797
0.492705
0.591098
0.507078
0.454146
0.405421
0.380561
0.352236
0.377979
0.356474
0.371058
0.407984
0.33479
0.361498
0.0335924
0.109681
0.126488
0.213537
0.229191
0.305503
0.273691
0.358737
0.310781
0.394577
0.249109
0.171497
0.331191
0.255911
0.265045
0.19822
0.0206199
0.247952
0.159058
0.00831306
0.14457
0.0938706
0.164353
0.60188
0.470983
0.559221
0.546968
0.366767
0.367234
0.326452
0.340629
0.382638
0.363771
0.355829
0.323636
0.332914
0.342595
0.273995
0.30752
0.108142
0.0863935
0.135413
0.282951
0.321579
0.583339
0.549542
0.25686
0.0965087
0.37394
0.264323
0.273306
0.191689
0.16202
0.559948
0.382468
0.142098
0.26897
0.49975
0.319057
0.111056
0.344397
0.0889598
0.408769
0.386979
0.0180438
0.00372503
0.183669
0.163345
0.619668
0.644309
0.304826
0.0370755
0.141657
0.0132221
0.0813705
0.297383
0.656166
0.658101
0.213247
0.010287
0.450225
0.486836
0.570403
0.359213
0.02875
0.274672
0.186899
0.290313
0.380207
0.364582
0.453215
0.405546
0.273429
0.262006
0.346945
0.0563078
0.199394
0.658489
0.681189
0.551519
0.588958
0.628023
0.528372
0.290138
0.175045
0.236977
0.276324
0.254601
0.319672
0.406156
0.343805
0.622235
0.0560181
0.595621
0.277574
0.253577
0.398777
0.521875
0.158527
0.269611
0.564126
0.412912
0.632236
0.578326
0.662815
0.0250829
0.612871
0.62125
0.678802
0.633042
1.11022e-16
0.172096
0.431027
0.516169
0.0209965
0.461297
0.0395084
0.576179
0.0253627
0.105242
0.4849
0.606825
0.472019
0.401276
0.390805
0.485688
0.326036
0.218316
0.145945
0.223107
0.265727
0.326634
0.249672
0.242569
0.516353
0.407513
0.320281
0.400581
0.395422
0.347594
0.428699
0.336477
0.319335
0.341331
0.371047
0.376637
0.293341
0.134541
0.106137
0.0301746
0.20744
0.269957
0.153542
0.00842267
0.0195277
0.541361
0.546104
0.215158
0.25755
0.199032
0.207044
0.297341
0.110867
0.206147
0.230893
0.184293
0.412863
0.400319
0.391643
0.395034
0.35417
0.313595
0.0109113
0.426993
0.276444
0.533234
0.649728
0.533194
0.412284
0.671822
0.283523
0.457971
0.615101
0.368568
0.716063
0.334483
0.66704
0.399471
0.458497
0.394601
0.415385
0.689294
0.0225024
0.253284
0.432151
0.0385673
0.320438
0.0979624
0.372903
0.297027
0.406538
0.672626
0.0270218
0.119067
0.431718
0.498321
0.331336
0.531861
0.59035
0.151846
0.134365
0.402371
0.146769
0.290171
0.267568
0.662942
0.467662
0.40864
0.247542
0.0728239
0.0546893
0.632895
0.222223
0.238855
0.0223696
0.217255
0.252501
0.0700202
0.071659
0.430472
0.17811
0.381223
0.0821483
0.367906
0.272344
0.224183
0.296948
0.594713
0.533843
0.649661
0.707958
0.401857
0.249665
0.53704
0.109324
0.253075
0.336625
0.300659
0.633957
0.446742
0.509446
0.0705953
0.394581
0.302724
0.488835
0.0986047
0.502357
0.529592
0.466714
0.46174
0.108969
0.667655
0.562858
0.0126416
0.253901
0.321788
0.317469
0.200437
0.365688
0.161195
0.286498
0.252782
0.452016
0.331935
0.345094
0.406091
0.478655
0.127535
0.305456
0.40282
0.450185
0.388568
0.181672
0.217205
0.339668
0.229887
0.301869
0.11831
0.392211
0.422412
0.299658
0.414021
0.534814
0.0434972
0.227068
0.252152
0.562422
0.231516
0.505969
0.561967
0.180702
0.395772
0.399933
0.113327
0.225028
0.442492
0.377707
0.308474
0.300244
0.30197
0.0585602
0.324126
0.344127
0.32687
0.139848
0.183133
0.206568
0.263263
0.275434
0.333519
0.474896
0.334693
0.223746
0.227321
0.241316
0.374575
0.457588
0.346071
0.308165
0.363597
0.506854
0.377974
0.0606939
0.412167
0.378873
0.262361
0.478294
0.355634
0.00340052
0.504379
0.0688949
0.0598187
0.6192
0.23421
0.307463
0.110285
0.193657
0.0724793
0.384591
0.248638
0.357031
0.263698
0.411677
0.0854618
0.609582
0.335001
0.529048
0.34735
0.200713
0.162646
0.0913174
0.524262
0.054978
0.631601
0.459329
0.468215
0.445997
0.283205
0.285594
0.467547
0.325454
0.112401
0.426263
0.0937
0.371525
0.223864
0.157138
0.344024
0.254367
0.368118
0.317564
0.273025
0.551474
0.422015
0.565946
0.253877
0.363019
0.374415
0.239046
0.377939
0.254122
0.0576503
0.363826
0.203509
0.163135
0.0194273
0.329092
0.170079
0.515168
0.38101
0.248273
0.328243
0.320079
0.38707
0.353926
0.297719
0.249361
0.42296
0.198829
0.0403191
0.594243
0.383675
0.344318
0.42107
0.318842
0.211586
0.122586
0.423506
0.320958
0.258784
0.213342
0.130621
0.244578
0.343701
0.333829
0.189179
0.506458
0.334073
0.314618
0.525805
0.0425658
0.315705
0.46711
0.453067
0.252932
0.403163
0.470009
0.411075
0.227854
0.266559
0.238779
0.0450593
0.332354
0.098065
0.247709
0.470143
0.381742
0.152644
0.180634
0.578749
0.155671
0.310938
0.429404
0.310362
0.422353
0.408185
0.101036
0.184255
0.179304
0.213623
0.0531254
0.446573
0.207082
0.356641
0.0535376
0.345035
0.403951
0.401978
0.443793
0.217765
0.466152
0.349111
0.557009
0.324263
0.429247
0.0146653
0.254809
0.383955
0.432791
0.158029
0.00032903
0.110978
0.316563
0.367962
0.190988
0.417057
0.220012
0.472908
0.605727
0.404207
0.178708
0.452204
0.348275
0.207224
0.112479
0.436941
0.24306
0.374239
0.247586
0.159044
0.0587791
0.345264
0.373384
0.541839
0.539651
0.351959
0.657952
0.295748
0.24266
0.175273
0.0389014
0.123203
0.178693
0.0880854
0.338244
0.557168
0.501686
0.196106
0.238801
0.481501
0.330174
0.0691983
0.303622
0.145567
0.328466
0.397763
0.412132
0.619985
0.0969106
0.58472
0.257439
0.0414214
0.559287
0.468419
0.328187
0.642775
0.257456
0.190143
0.401047
0.542533
0.66178
0.25895
0.0999936
0.374902
0.420757
0.24702
0.277171
0.473189
0.333378
0.585417
0.285392
0.498203
0.0738971
0.562057
0.3858
0.382429
0.35353
