# vtk DataFile Version 2.0
Unstructured Grid Example
ASCII
 
DATASET UNSTRUCTURED_GRID
POINTS 191 double
0.2 -0.1 1.1
0.2 -0.1 0.6
0.2 0.9 1.1
0.2 0.9 0.6
1.2 -0.1 1.1
1.2 -0.1 0.6
0.2 -0.1 0.725
0.2 -0.1 0.85
0.2 -0.1 0.975
0.2 0.0428571 1.1
0.2 0.185714 1.1
0.2 0.328571 1.1
0.2 0.471429 1.1
0.2 0.614286 1.1
0.2 0.757143 1.1
0.2 0.9 0.725
0.2 0.9 0.85
0.2 0.9 0.975
0.2 0.0428571 0.6
0.2 0.185714 0.6
0.2 0.328571 0.6
0.2 0.471429 0.6
0.2 0.614286 0.6
0.2 0.757143 0.6
1.2 -0.1 0.725
1.2 -0.1 0.85
1.2 -0.1 0.975
1.1 1.66533e-16 1.1
1 0.1 1.1
0.9 0.2 1.1
0.8 0.3 1.1
0.7 0.4 1.1
0.6 0.5 1.1
0.5 0.6 1.1
0.4 0.7 1.1
0.3 0.8 1.1
1.1 1.66533e-16 0.6
1 0.1 0.6
0.9 0.2 0.6
0.8 0.3 0.6
0.7 0.4 0.6
0.6 0.5 0.6
0.5 0.6 0.6
0.4 0.7 0.6
0.3 0.8 0.6
0.342857 -0.1 0.6
0.485714 -0.1 0.6
0.628571 -0.1 0.6
0.771429 -0.1 0.6
0.914286 -0.1 0.6
1.05714 -0.1 0.6
0.342857 -0.1 1.1
0.485714 -0.1 1.1
0.628571 -0.1 1.1
0.771429 -0.1 1.1
0.914286 -0.1 1.1
1.05714 -0.1 1.1
0.2 0.258814 0.975715
0.2 0.54157 0.726365
0.2 0.691659 0.972396
0.2 0.108071 0.727289
0.2 0.798296 0.79073
0.2 0.00170832 0.90927
0.2 0.544376 0.97618
0.2 0.606999 0.849618
0.2 0.470297 0.852001
0.2 0.399242 0.727141
0.2 0.255235 0.722617
0.2 0.193301 0.85171
0.2 0.400343 0.97626
0.2 0.329538 0.850907
0.2 0.691257 0.729289
0.2 0.108845 0.971197
0.2 0.801753 0.908466
0.2 -0.00179265 0.791482
0.2 -0.00931783 1.01109
0.2 0.809339 0.689004
0.2 -0.010173 0.688754
0.2 0.810111 1.01117
0.2 0.0820265 0.85019
0.2 0.717993 0.8501
0.450816 0.649184 0.727551
0.649074 0.450926 0.976862
0.850583 0.249417 0.727681
1.05419 0.0458091 0.973127
0.345964 0.754036 0.972917
1.12868 -0.0286812 0.790627
0.271342 0.828658 0.79066
0.649123 0.450877 0.725736
0.850885 0.249115 0.977534
0.448983 0.651017 0.977258
0.405148 0.694852 0.850355
0.500061 0.599939 0.853721
0.95114 0.14886 0.977846
0.995266 0.104734 0.851754
0.549673 0.550327 0.730617
0.549268 0.550732 0.976915
0.901757 0.198243 0.858254
0.799486 0.300514 0.853485
0.950825 0.149175 0.733228
0.748788 0.351212 0.726133
0.698796 0.401204 0.852125
0.749707 0.350293 0.976668
0.598424 0.501576 0.853629
0.349084 0.750916 0.726156
0.268919 0.831081 0.908565
1.13111 -0.0311085 0.908594
1.04762 0.0523786 0.722103
0.264085 0.835915 0.688363
0.262977 0.837023 1.0113
1.13706 -0.0370599 1.01134
1.13394 -0.0339423 0.688192
0.328091 0.771909 0.84973
1.07137 0.0286265 0.849241
0.55863 -0.1 0.726141
0.841122 -0.1 0.7255
0.408343 -0.1 0.972474
0.99138 -0.1 0.972056
0.699946 -0.1 0.976482
1.09819 -0.1 0.790731
0.301707 -0.1 0.79073
0.557143 -0.1 0.976282
0.493632 -0.1 0.849598
0.630087 -0.1 0.851659
0.771166 -0.1 0.851933
0.843543 -0.1 0.975575
0.906247 -0.1 0.849015
0.70012 -0.1 0.726692
0.990978 -0.1 0.72908
0.408865 -0.1 0.729254
1.09712 -0.1 0.910413
0.298251 -0.1 0.908479
0.290686 -0.1 0.688997
1.10926 -0.1 0.688962
0.28989 -0.1 1.01119
1.10913 -0.1 1.01149
1.01678 -0.1 0.850259
0.382159 -0.1 0.850107
0.554985 0.0245076 0.6
0.573931 0.35928 0.6
0.3261 0.251127 0.6
0.755641 0.163822 0.6
0.336795 0.562067 0.6
0.861418 0.0410406 0.6
0.46526 0.449198 0.6
0.698499 0.0302759 0.6
0.620485 0.146663 0.6
0.474355 0.144731 0.6
0.321625 0.109734 0.6
0.331123 0.389795 0.6
0.456683 0.29826 0.6
0.414019 0.0139251 0.6
0.986569 -0.0117919 0.6
0.287359 0.686699 0.6
0.672034 0.272034 0.6
0.304579 0.00457869 0.6
0.564773 0.247941 0.6
0.554985 0.0245076 1.1
0.573931 0.35928 1.1
0.3261 0.251127 1.1
0.755641 0.163822 1.1
0.336795 0.562067 1.1
0.861418 0.0410406 1.1
0.46526 0.449198 1.1
0.698499 0.0302759 1.1
0.620485 0.146663 1.1
0.474355 0.144731 1.1
0.321625 0.109734 1.1
0.331123 0.389795 1.1
0.456683 0.29826 1.1
0.414019 0.0139251 1.1
0.986569 -0.0117919 1.1
0.287359 0.686699 1.1
0.672034 0.272034 1.1
0.304579 0.00457869 1.1
0.564773 0.247941 1.1
0.562884 0.18094 0.85
0.406117 0.400246 0.809217
0.39219 0.0921697 0.911417
0.738666 0.0932024 0.795662
0.367914 0.223179 0.786641
0.520443 0.335096 0.930761
0.350529 0.0525811 0.75843
0.35051 0.533402 0.898541
0.628603 0.0486465 0.934449
0.54702 0.322621 0.761514
0.688394 0.20004 0.953666
0.35666 0.300853 0.934463
0.852444 0.0445297 0.90133
0.514627 0.0552653 0.756096
0.6687 0.220963 0.745359
 
CELLS 525 2625
4 142 177 81 183
4 142 58 177 183
4 142 81 58 183
4 64 58 81 183
4 81 91 64 183
4 64 81 104 91
4 99 179 115 188
4 126 99 115 188
4 121 170 157 178
4 99 126 94 188
4 157 121 178 184
4 177 181 96 183
4 176 178 181 187
4 121 116 170 178
4 95 81 144 177
4 166 181 178 187
4 163 183 181 187
4 104 71 64 91
4 176 178 166 181
4 163 96 181 183
4 176 189 156 190
4 175 165 176 186
4 66 149 58 177
4 143 115 99 179
4 181 183 177 187
4 96 177 103 181
4 96 92 177 183
4 81 177 92 183
4 96 92 103 177
4 172 59 85 183
4 146 156 189 190
4 134 75 174 178
4 156 185 176 190
4 121 122 178 184
4 142 144 81 177
4 167 178 72 187
4 123 179 127 189
4 58 65 177 183
4 166 175 176 181
4 95 92 81 177
4 81 104 142 58
4 127 179 145 189
4 184 186 164 188
4 80 85 91 112
4 142 58 149 177
4 178 184 122 189
4 66 58 65 177
4 71 112 80 91
4 101 181 176 186
4 166 175 165 176
4 128 94 136 113
4 101 186 176 190
4 147 176 156 185
4 175 176 181 186
4 165 184 176 186
4 121 122 116 178
4 62 178 131 182
4 166 178 176 184
4 84 136 94 113
4 164 186 160 188
4 74 62 131 182
4 146 189 179 190
4 169 181 166 187
4 74 131 120 182
4 69 65 183 187
4 173 158 102 181
4 163 168 183 187
4 102 173 181 186
4 172 85 161 183
4 147 156 176 189
4 101 176 181 185
4 172 161 59 183
4 123 184 179 189
4 147 180 176 185
4 68 72 178 187
4 146 145 179 189
4 101 176 185 190
4 72 75 62 178
4 177 183 65 187
4 66 149 177 180
4 166 176 165 184
4 157 178 166 184
4 116 131 134 178
4 123 127 114 189
4 147 176 180 189
4 164 118 184 188
4 160 186 89 188
4 66 67 149 180
4 69 183 168 187
4 91 80 64 59
4 114 127 145 189
4 176 180 178 187
4 68 57 72 187
4 126 94 136 128
4 85 80 91 59
4 93 84 171 188
4 164 125 118 188
4 160 89 93 188
4 80 64 71 91
4 114 145 138 189
4 158 82 102 181
4 101 102 181 186
4 116 134 174 178
4 66 177 70 180
4 79 178 62 182
4 84 117 171 188
4 175 181 173 186
4 131 137 120 182
4 72 174 75 178
4 131 178 137 182
4 117 125 171 188
4 101 98 186 190
4 94 136 117 188
4 99 83 141 179
4 71 104 112 91
4 90 161 85 183
4 91 85 59 183
4 136 84 94 117
4 90 96 163 183
4 64 91 59 183
4 72 57 159 187
4 159 167 72 187
4 70 177 65 187
4 74 79 62 182
4 147 146 156 189
4 127 115 145 179
4 137 178 122 189
4 69 63 168 183
4 166 169 175 181
4 97 186 179 188
4 176 184 178 189
4 137 182 178 189
4 89 186 97 188
4 69 70 65 187
4 113 128 94 107
4 66 70 67 180
4 173 175 158 181
4 59 161 63 183
4 136 126 117 188
4 176 181 180 187
4 157 170 166 178
4 143 99 141 179
4 124 184 118 188
4 97 98 179 186
4 146 138 145 189
4 103 177 95 185
4 143 145 115 179
4 94 126 136 188
4 93 171 162 188
4 162 171 125 188
4 147 156 150 185
4 95 177 144 185
4 149 150 177 180
4 147 150 180 185
4 115 179 124 188
4 162 160 93 188
4 124 179 184 188
4 179 186 184 188
4 68 178 180 187
4 125 164 162 188
4 144 142 149 177
4 150 177 180 185
4 170 116 174 178
4 117 84 94 188
4 162 164 160 188
4 101 102 82 181
4 180 181 176 185
4 90 163 161 183
4 95 103 92 177
4 63 161 168 183
4 179 189 176 190
4 179 184 176 189
4 124 179 123 184
4 65 70 66 177
4 177 181 180 185
4 137 116 122 178
4 103 181 177 185
4 179 186 98 190
4 139 154 100 185
4 99 97 179 188
4 67 140 149 180
4 72 167 174 178
4 88 95 144 185
4 163 181 169 187
4 178 180 176 189
4 60 148 67 180
4 97 89 98 186
4 124 127 123 179
4 122 184 123 189
4 72 79 68 178
4 131 116 137 178
4 82 163 96 181
4 62 79 72 178
4 88 103 95 185
4 127 124 115 179
4 180 181 177 187
4 79 60 68 182
4 139 88 144 185
4 150 144 177 185
4 166 165 157 184
4 91 90 85 183
4 154 100 185 190
4 139 100 88 185
4 129 182 137 189
4 82 158 163 181
4 70 180 177 187
4 63 12 69 168
4 129 137 122 189
4 101 181 103 185
4 33 90 96 163
4 81 92 91 183
4 146 179 141 190
4 178 182 180 189
4 161 163 168 183
4 147 180 182 189
4 52 121 170 157
4 38 99 83 141
4 98 83 179 190
4 82 96 103 181
4 59 63 64 183
4 173 158 31 102
4 98 83 97 179
4 89 93 29 160
4 83 99 97 179
4 102 101 98 186
4 58 64 65 183
4 149 140 150 180
4 114 47 138 145
4 81 144 42 95
4 149 21 66 58
4 126 115 124 188
4 114 47 145 127
4 121 170 116 52
4 139 154 40 100
4 60 148 180 182
4 60 148 19 67
4 31 158 82 102
4 159 169 166 187
4 54 118 164 125
4 145 141 146 179
4 124 118 125 188
4 144 149 150 177
4 163 169 168 187
4 148 140 67 180
4 71 22 153 58
4 88 139 40 100
4 141 38 99 143
4 49 115 128 152
4 147 180 148 182
4 118 124 123 184
4 141 179 83 190
4 101 185 100 190
4 37 107 99 152
4 167 170 174 178
4 129 46 151 189
4 143 141 145 179
4 46 138 151 189
4 127 48 145 115
4 60 180 68 182
4 12 63 161 168
4 176 186 179 190
4 82 32 96 163
4 142 144 42 81
4 53 121 157 184
4 117 125 55 171
4 33 90 163 161
4 160 93 29 162
4 53 118 121 184
4 163 82 32 158
4 21 149 142 58
4 114 46 129 189
4 20 66 67 149
4 120 74 7 131
4 62 7 74 131
4 46 114 138 189
4 176 184 179 186
4 72 10 159 57
4 164 184 165 186
4 115 49 143 152
4 82 103 101 181
4 168 57 69 187
4 41 144 139 88
4 74 120 132 182
4 168 11 69 57
4 164 162 54 125
4 139 156 154 185
4 89 97 93 188
4 154 185 156 190
4 96 90 92 183
4 99 94 97 188
4 37 99 143 152
4 144 41 95 88
4 69 65 63 183
4 101 100 98 190
4 162 55 125 171
4 22 142 153 58
4 171 84 93 28
4 74 132 77 182
4 84 130 136 113
4 10 159 167 72
4 48 143 145 115
4 157 164 53 184
4 53 164 118 184
4 71 112 61 80
4 112 73 80 85
4 100 154 39 190
4 68 180 70 187
4 61 112 71 87
4 102 30 173 186
4 67 148 19 140
4 88 100 101 185
4 101 103 88 185
4 121 123 122 184
4 100 39 83 190
4 136 128 113 119
4 112 105 73 85
4 122 123 114 189
4 151 182 129 189
4 102 89 30 186
4 39 154 141 190
4 93 162 171 28
4 160 164 165 186
4 150 139 144 185
4 94 84 93 188
4 39 141 83 190
4 153 108 76 104
4 128 113 119 86
4 147 182 151 189
4 132 129 155 182
4 167 166 170 178
4 67 68 60 180
4 117 126 125 188
4 78 85 109 172
4 117 130 136 84
4 77 155 60 182
4 30 160 173 186
4 140 148 147 180
4 106 130 84 113
4 135 110 84 171
4 89 160 30 186
4 68 67 70 180
4 155 77 132 182
4 140 147 150 180
4 73 80 85 59
4 111 133 128 152
4 140 20 67 149
4 112 104 71 87
4 68 70 57 187
4 169 163 158 181
4 109 78 172 35
4 110 135 27 171
4 155 129 151 182
4 151 147 148 182
4 168 159 57 187
4 168 159 11 57
4 175 173 165 186
4 45 155 132 129
4 75 9 174 72
4 134 174 51 116
4 155 18 77 60
4 128 113 86 107
4 169 158 175 181
4 23 153 108 76
4 71 153 76 104
4 98 100 83 190
4 78 59 85 172
4 138 146 147 189
4 70 69 57 187
4 135 84 117 171
4 75 8 62 131
4 74 6 132 120
4 107 111 128 152
4 165 164 157 184
4 60 155 148 182
4 129 122 114 189
4 8 75 134 131
4 132 77 6 74
4 61 71 76 87
4 137 129 120 182
4 172 85 109 35
4 155 45 151 129
4 27 84 110 171
4 172 78 14 35
4 170 51 174 116
4 102 98 89 186
4 109 105 85 78
4 105 73 85 78
4 78 14 59 172
4 120 129 132 182
4 153 44 108 104
4 135 27 171 56
4 133 128 119 111
4 86 119 128 111
4 60 79 74 182
4 44 23 153 108
4 91 92 90 183
4 171 117 135 56
4 23 153 76 71
4 139 150 156 185
4 152 133 128 50
4 77 60 74 182
4 9 167 174 72
4 123 121 118 184
4 63 65 64 183
4 18 155 148 60
4 146 154 156 190
4 107 111 152 36
4 138 147 151 189
4 59 85 73 78
4 84 117 130 135
4 111 128 86 107
4 146 141 154 190
4 125 126 124 188
4 168 169 159 187
4 173 160 165 186
4 113 130 136 119
4 143 38 99 37
4 93 97 94 188
4 106 130 113 119
4 158 82 32 31
4 61 112 73 80
4 114 47 46 138
4 155 151 148 182
4 87 61 112 73
4 52 53 121 157
4 41 139 40 88
4 142 42 43 81
4 162 55 54 125
4 48 49 143 115
4 105 87 112 73
4 173 31 30 102
4 154 40 100 39
4 9 10 167 72
4 162 93 29 28
4 148 19 18 60
4 170 51 116 52
4 45 151 129 46
4 90 33 34 161
4 119 113 106 86
4 142 22 21 58
4 63 13 12 161
4 48 145 47 127
4 83 39 38 141
4 144 41 42 95
4 20 21 66 149
4 89 29 30 160
4 7 6 74 120
4 62 8 7 131
4 164 53 118 54
4 33 96 32 163
4 77 1 155 132
4 75 174 0 134
4 69 12 11 168
4 159 10 11 57
4 59 14 13 172
4 153 23 22 71
4 19 20 67 140
4 128 49 152 50
4 55 117 171 56
4 172 34 85 35
4 171 27 84 28
4 78 109 2 35
4 4 110 135 27
4 130 106 25 119
4 44 153 43 104
4 23 108 3 76
4 5 133 111 36
4 87 16 61 73
4 16 87 105 73
4 152 37 107 36
4 106 25 119 86
4 155 18 1 77
4 174 51 0 134
4 174 0 9 75
4 45 155 1 132
4 25 106 130 26
4 78 2 14 35
4 61 15 16 87
4 27 135 4 56
4 133 5 50 36
4 108 23 3 44
4 25 119 86 24
4 75 0 8 134
4 6 1 77 132
4 17 16 105 73
4 61 76 15 87
4 106 130 26 135
4 133 24 5 111
4 76 108 15 87
4 108 15 3 76
4 110 106 26 135
4 26 4 110 135
4 2 17 109 78
4 109 17 105 78
4 73 105 17 78
4 104 58 64 71
4 64 58 104 81
4 128 94 99 126
4 99 94 128 107
4 99 115 128 126
4 161 85 34 90
4 161 34 85 172
4 187 167 166 159
4 187 166 167 178
4 161 59 13 172
4 161 13 59 63
4 131 75 178 62
4 131 178 75 134
4 142 104 43 153
4 142 43 104 81
4 153 58 104 71
4 104 58 153 142
4 68 182 178 79
4 178 182 68 180
4 152 115 99 143
4 76 104 87 71
4 87 104 76 108
4 111 119 24 86
4 111 24 119 133
4 36 133 152 50
4 36 152 133 111
4 106 135 84 130
4 84 135 106 110
4 128 99 152 115
4 152 99 128 107
 
CELL_TYPES 525
10
10
10
10
10
10
10
10
10
10
10
10
10
10
10
10
10
10
10
10
10
10
10
10
10
10
10
10
10
10
10
10
10
10
10
10
10
10
10
10
10
10
10
10
10
10
10
10
10
10
10
10
10
10
10
10
10
10
10
10
10
10
10
10
10
10
10
10
10
10
10
10
10
10
10
10
10
10
10
10
10
10
10
10
10
10
10
10
10
10
10
10
10
10
10
10
10
10
10
10
10
10
10
10
10
10
10
10
10
10
10
10
10
10
10
10
10
10
10
10
10
10
10
10
10
10
10
10
10
10
10
10
10
10
10
10
10
10
10
10
10
10
10
10
10
10
10
10
10
10
10
10
10
10
10
10
10
10
10
10
10
10
10
10
10
10
10
10
10
10
10
10
10
10
10
10
10
10
10
10
10
10
10
10
10
10
10
10
10
10
10
10
10
10
10
10
10
10
10
10
10
10
10
10
10
10
10
10
10
10
10
10
10
10
10
10
10
10
10
10
10
10
10
10
10
10
10
10
10
10
10
10
10
10
10
10
10
10
10
10
10
10
10
10
10
10
10
10
10
10
10
10
10
10
10
10
10
10
10
10
10
10
10
10
10
10
10
10
10
10
10
10
10
10
10
10
10
10
10
10
10
10
10
10
10
10
10
10
10
10
10
10
10
10
10
10
10
10
10
10
10
10
10
10
10
10
10
10
10
10
10
10
10
10
10
10
10
10
10
10
10
10
10
10
10
10
10
10
10
10
10
10
10
10
10
10
10
10
10
10
10
10
10
10
10
10
10
10
10
10
10
10
10
10
10
10
10
10
10
10
10
10
10
10
10
10
10
10
10
10
10
10
10
10
10
10
10
10
10
10
10
10
10
10
10
10
10
10
10
10
10
10
10
10
10
10
10
10
10
10
10
10
10
10
10
10
10
10
10
10
10
10
10
10
10
10
10
10
10
10
10
10
10
10
10
10
10
10
10
10
10
10
10
10
10
10
10
10
10
10
10
10
10
10
10
10
10
10
10
10
10
10
10
10
10
10
10
10
10
10
10
10
10
10
10
10
10
10
10
10
10
10
10
10
10
10
10
10
10
10
10
10
10
10
10
10
10
10
10
10
10
10
10
10
10
10
10
10
10
10
10
10
10
10
10
10
10
10
10
10
10
10
10
10
10
10
10
10
10
10
10
10
10
10
10
 
POINT_DATA 191
SCALARS sample_scalars double
LOOKUP_TABLE default
0.285714
0.592724
1.07231
1.24391
0.714286
0.903737
0.48575
0.39084
0.329771
0.337696
0.411116
0.534319
0.664974
0.799801
0.934628
1.19037
1.13388
1.09375
0.637221
0.703513
0.784655
0.873887
0.99828
1.12078
0.838001
0.782285
0.742335
0.637976
0.574042
0.539293
0.525859
0.547629
0.639345
0.724158
0.835023
0.949259
0.841086
0.797182
0.775511
0.778033
0.818804
0.871578
0.945773
1.02338
1.13037
0.537556
0.525621
0.53967
0.575893
0.676341
0.788008
0.142857
0
0.142857
0.285714
0.428571
0.571429
0.529172
0.872826
0.901093
0.568475
1.07129
0.399703
0.766133
0.870932
0.748449
0.749019
0.657085
0.534501
0.646493
0.640011
1.00267
0.420879
1.0237
0.458124
0.34314
1.12391
0.540538
1.00113
0.476239
0.972976
0.91242
0.64399
0.670929
0.643627
0.912585
0.761889
1.08309
0.753723
0.563122
0.805178
0.902544
0.814593
0.595491
0.646928
0.824901
0.718153
0.62043
0.604493
0.688472
0.706496
0.647837
0.563317
0.716738
1.02312
1.02911
0.713746
0.751267
1.13331
1.00623
0.685997
0.813506
0.995474
0.701613
0.401793
0.535661
0.149161
0.541358
0.266428
0.716919
0.369656
0.142857
0.270589
0.287259
0.398855
0.399637
0.517262
0.430511
0.655782
0.394054
0.663322
0.276503
0.469647
0.778072
0.232869
0.644723
0.61657
0.274298
0.569784
0.760716
0.684976
0.678312
0.906195
0.686081
0.827296
0.60163
0.641333
0.621595
0.609239
0.761903
0.715284
0.562469
0.745962
1.03227
0.721624
0.580023
0.686125
0.14248
0.496996
0.403698
0.397265
0.705299
0.423439
0.569954
0.269141
0.281088
0.26423
0.267708
0.537289
0.418773
0.134607
0.525209
0.839267
0.416643
0.226358
0.376142
0.446938
0.65121
0.326478
0.474015
0.509021
0.521031
0.438353
0.7341
0.295393
0.613311
0.424531
0.50514
0.4842
0.441666
0.575042
