# vtk DataFile Version 2.0
Unstructured Grid Example
ASCII
 
DATASET UNSTRUCTURED_GRID
POINTS 1473 double
0.7 -1.71451e-16 -4.89859e-17
0.696629 0.068612 -4.89859e-17
0.68655 0.136563 -4.89859e-17
0.669858 0.203199 -4.89859e-17
0.646716 0.267878 -4.89859e-17
0.617345 0.329978 -4.89859e-17
0.582029 0.388899 -4.89859e-17
0.541107 0.444075 -4.89859e-17
0.494975 0.494975 -4.89859e-17
0.444075 0.541107 -4.89859e-17
0.388899 0.582029 -4.89859e-17
0.329978 0.617345 -4.89859e-17
0.267878 0.646716 -4.89859e-17
0.203199 0.669858 -4.89859e-17
0.136563 0.68655 -4.89859e-17
0.068612 0.696629 -4.89859e-17
2.37433e-15 0.7 -4.89859e-17
-0.068612 0.696629 -4.89859e-17
-0.136563 0.68655 -4.89859e-17
-0.203199 0.669858 -4.89859e-17
-0.267878 0.646716 -4.89859e-17
-0.329978 0.617345 -4.89859e-17
-0.388899 0.582029 -4.89859e-17
-0.444075 0.541107 -4.89859e-17
-0.494975 0.494975 -4.89859e-17
-0.541107 0.444075 -4.89859e-17
-0.582029 0.388899 -4.89859e-17
-0.617345 0.329978 -4.89859e-17
-0.646716 0.267878 -4.89859e-17
-0.669858 0.203199 -4.89859e-17
-0.68655 0.136563 -4.89859e-17
-0.696629 0.068612 -4.89859e-17
-0.7 4.4378e-15 -4.89859e-17
-0.696629 -0.068612 -4.89859e-17
-0.68655 -0.136563 -4.89859e-17
-0.669858 -0.203199 -4.89859e-17
-0.646716 -0.267878 -4.89859e-17
-0.617345 -0.329978 -4.89859e-17
-0.582029 -0.388899 -4.89859e-17
-0.541107 -0.444075 -4.89859e-17
-0.494975 -0.494975 -4.89859e-17
-0.444075 -0.541107 -4.89859e-17
-0.388899 -0.582029 -4.89859e-17
-0.329978 -0.617345 -4.89859e-17
-0.267878 -0.646716 -4.89859e-17
-0.203199 -0.669858 -4.89859e-17
-0.136563 -0.68655 -4.89859e-17
-0.068612 -0.696629 -4.89859e-17
-1.99376e-15 -0.7 -4.89859e-17
0.068612 -0.696629 -4.89859e-17
0.136563 -0.68655 -4.89859e-17
0.203199 -0.669858 -4.89859e-17
0.267878 -0.646716 -4.89859e-17
0.329978 -0.617345 -4.89859e-17
0.388899 -0.582029 -4.89859e-17
0.444075 -0.541107 -4.89859e-17
0.494975 -0.494975 -4.89859e-17
0.541107 -0.444075 -4.89859e-17
0.582029 -0.388899 -4.89859e-17
0.617345 -0.329978 -4.89859e-17
0.646716 -0.267878 -4.89859e-17
0.669858 -0.203199 -4.89859e-17
0.68655 -0.136563 -4.89859e-17
0.696629 -0.068612 -4.89859e-17
0.689163 -1.68796e-16 0.0649399
0.657828 -1.61121e-16 0.122843
0.60939 -1.49257e-16 0.167433
0.549097 -1.3449e-16 0.19388
0.483484 -1.18419e-16 0.199317
0.419661 -1.02787e-16 0.183155
0.364544 -8.92875e-17 0.147145
0.324105 -7.93829e-17 0.0951895
0.302728 -7.41469e-17 0.0329189
0.302728 -7.41469e-17 -0.0329189
0.324105 -7.93829e-17 -0.0951895
0.364544 -8.92875e-17 -0.147145
0.419661 -1.02787e-16 -0.183155
0.483484 -1.18419e-16 -0.199317
0.549097 -1.3449e-16 -0.19388
0.60939 -1.49257e-16 -0.167433
0.657828 -1.61121e-16 -0.122843
0.689163 -1.68796e-16 -0.0649399
0.387717 -0.0564577 -0.168208
0.389394 0.0568018 -0.169295
0.392135 -0.0551968 0.170834
0.396824 0.0672026 0.17461
0.307047 -0.057148 -0.0691095
0.512083 0.464125 -0.0589455
0.506203 -0.467372 -0.0655039
0.512083 -0.464125 0.0589455
0.51677 0.459311 0.0580556
-0.650716 0.23283 -0.0589455
0.304843 0.0611632 -0.0651777
-0.692808 -0.0273512 -0.0511534
-0.171319 -0.667916 0.0638401
-0.554621 -0.413331 -0.0570228
0.167928 -0.670404 0.0589455
-0.650716 0.23283 0.0589455
-0.101408 0.683636 0.0589455
-0.411697 0.55511 -0.0589455
-0.0339115 0.690284 -0.0589455
-0.410124 0.555517 0.0608848
0.228526 0.649898 0.0656846
0.624917 0.297553 -0.0555136
0.624976 -0.295489 -0.0583149
0.622737 0.297101 0.0625154
0.624762 -0.29549 0.0589455
-0.689705 -0.0242784 0.0620454
0.354781 -0.593291 -0.0584221
0.358501 0.590704 -0.0593832
-0.553035 0.414795 -0.0583294
0.355305 -0.59279 0.0589455
-0.233907 0.650642 -0.0579843
0.169721 -0.670915 -0.0558314
0.166719 0.670642 -0.0591464
-0.55511 0.411697 0.0589455
-0.0339115 -0.690284 -0.0589455
-0.646765 -0.240109 0.0627646
-0.650402 -0.235355 -0.0571004
-0.415391 -0.55391 -0.0547403
-0.355305 -0.59279 0.0589455
-0.554575 -0.410305 0.062881
-0.23283 -0.650716 -0.0589455
0.579882 -0.0569951 0.182112
0.579882 0.0569951 0.182112
0.583175 -0.0506005 -0.180866
0.579882 0.0569951 -0.182112
0.670404 0.167928 0.0589455
0.670404 -0.167928 0.0589455
0.670533 -0.169344 -0.0573992
0.668342 0.168552 -0.0646335
0.411697 0.55511 0.0589455
0.101408 0.683636 0.0589455
-0.683273 0.0976177 -0.0618039
0.0412484 -0.688857 0.0621736
-0.228876 0.651838 0.0597953
-0.683636 0.101408 0.0589455
-0.464125 -0.512083 0.0589455
0.308599 -0.0558063 0.0725024
0.305691 0.0648224 0.0695661
0.67403 -0.057014 0.0941804
0.67403 0.057014 0.0941804
0.673709 -0.0595658 -0.0943673
0.67403 0.057014 -0.0941804
0.339412 -0.0551779 -0.124991
0.310073 -0.11092 -0.104244
0.282814 -0.114714 -0.0452818
0.274436 -0.164328 -0.086916
0.249349 -0.169716 -0.0254515
0.230486 -0.21247 -0.0721726
0.205796 -0.218613 -0.00978847
0.178146 -0.252648 -0.0597671
0.15393 -0.257514 0.00231085
0.118402 -0.282401 -0.04948
0.0943694 -0.285249 0.013474
0.0537132 -0.299236 -0.0398894
0.0291111 -0.299963 0.0233848
-0.0137142 -0.302158 -0.0313319
-0.0396797 -0.299867 0.031403
-0.0799267 -0.290484 -0.0225877
-0.105741 -0.285148 0.0403983
-0.141734 -0.264923 -0.0134677
0.193891 -0.238577 0.0540051
-0.167392 -0.256837 0.0508433
-0.197298 -0.226008 -0.00206793
-0.221312 -0.216577 0.0613814
-0.242809 -0.176715 0.0110752
-0.265933 -0.167005 0.0735727
-0.276912 -0.119751 0.0259929
-0.301256 -0.110524 0.0889927
-0.299753 -0.0588088 0.0464445
-0.327404 -0.0499752 0.107263
-0.312314 0.00489454 0.0691989
-0.300044 -0.00414356 0.00538208
-0.296512 0.0582813 0.0294835
-0.316225 0.0684085 0.0941368
-0.285397 0.118629 0.059545
-0.278592 0.1117 -0.0077567
-0.252015 0.165569 0.0247515
-0.255821 0.165856 -0.0439152
-0.214985 0.209878 -0.0133356
-0.229011 0.217936 -0.0787027
-0.176971 0.250859 -0.0524484
-0.168049 0.249275 0.0158644
-0.119354 0.277004 -0.0254275
-0.11464 0.282413 0.0435276
-0.135491 0.290578 -0.088434
-0.0726383 0.303291 -0.0678702
-0.291983 0.11691 -0.0748099
-0.093463 0.330112 -0.12401
-0.027662 0.330439 -0.107887
-0.313822 0.131455 0.120322
-0.140816 -0.294951 0.10008
-0.270502 -0.138161 -0.038515
-0.0568372 -0.312725 -0.0825875
0.21695 -0.261969 -0.120187
-0.260611 -0.217543 0.119296
0.00238954 -0.318808 0.0846919
-0.155347 0.325912 -0.143843
0.315157 -0.16718 -0.139573
0.0846488 -0.314539 -0.0981337
-0.0065641 0.306261 -0.0499246
0.038202 0.321948 -0.0953756
0.0583776 0.297555 -0.0357842
0.102242 0.302948 -0.0866308
0.0182924 0.362421 -0.145598
-0.355305 0.0846232 0.147786
-0.36173 0.150565 0.168214
-0.343661 -0.106326 0.142566
0.121553 0.27638 -0.027707
0.0839097 0.289778 0.0258873
-0.16913 0.26849 0.0814122
-0.120043 0.308343 0.106774
-0.180148 0.305451 0.137346
-0.133838 0.351223 0.156809
-0.198505 0.357873 0.178221
-0.154061 0.407447 0.189348
-0.0879357 0.397225 0.176979
-0.120147 0.373714 -0.168686
-0.183442 0.375935 -0.182553
0.162071 0.272894 -0.0815745
0.149869 0.316289 -0.132287
0.207138 0.280374 -0.130673
0.202688 0.335653 -0.168399
0.258841 0.29884 -0.170438
-0.410563 0.103603 0.184763
-0.418591 0.172601 0.194346
0.145949 0.265655 0.035114
0.115755 0.297008 0.0845857
0.177023 0.270771 0.0940682
0.154454 0.317344 0.135543
0.216251 0.291706 0.145822
0.200582 0.34941 0.174842
0.261693 0.323701 0.181621
0.259773 0.361641 -0.192366
0.202268 0.399163 -0.192983
0.315526 0.324186 -0.19425
-0.222314 0.419392 0.19839
-0.263916 0.365471 0.193854
0.250226 0.388065 0.196307
0.187286 0.411558 0.194196
0.312741 0.259444 -0.176718
0.370673 0.286138 -0.197466
0.273802 0.260705 0.158532
0.322826 0.29744 0.190458
-0.14928 0.430219 -0.19496
-0.219106 0.43016 -0.199254
-0.250486 0.365706 -0.191784
-0.110878 0.459994 0.198192
-0.0453618 0.447144 0.193503
0.320373 0.398988 -0.199658
-0.471387 0.129423 0.199688
-0.4631 0.0573223 0.197197
0.239626 0.453785 0.199566
0.176557 0.47804 0.199769
0.302641 0.429522 0.198376
-0.48238 0.196964 0.19889
-0.429169 0.239997 0.199828
-0.0650851 0.509603 0.199527
-0.287371 0.429879 -0.199269
-0.321858 0.370997 -0.199804
-0.27791 0.179722 -0.106889
-0.323878 0.135299 -0.133415
-0.288814 0.429533 0.199224
-0.184422 0.487671 -0.198854
-0.112797 0.48976 -0.199983
-0.147665 0.547433 -0.188444
-0.08021 0.545837 -0.193202
0.201493 0.229987 0.0476802
-0.244881 0.481736 0.195876
-0.493026 0.265117 0.190855
-0.440112 0.308227 0.196489
-0.524366 0.0861163 0.197521
-0.514802 0.0174612 0.199429
-0.326462 0.0704048 -0.111504
-0.36925 0.0918077 -0.160368
-0.363398 0.0250414 -0.146883
-0.416663 0.0480699 -0.183052
-0.406094 -0.0192208 -0.176824
-0.372329 0.158334 -0.175779
-0.467091 0.00406922 -0.197277
-0.454918 -0.063266 -0.195814
-0.48115 0.0690498 -0.199515
-0.531371 0.0275764 -0.197409
-0.545698 0.0924507 -0.192719
-0.393977 -0.0865686 -0.175111
-0.182126 -0.252463 -0.0662735
-0.442836 -0.130625 -0.196298
-0.506671 -0.107983 -0.199184
-0.49387 -0.175273 -0.198549
-0.429158 -0.197766 -0.198105
-0.480994 -0.242524 -0.196225
-0.417517 -0.265423 -0.199931
0.331774 0.232309 0.176008
0.382467 0.267766 0.197239
0.291417 0.494985 0.185647
-0.355193 0.429988 -0.19149
-0.390055 0.371457 -0.196234
-0.366362 -0.221291 -0.186593
-0.352535 -0.287767 -0.194889
-0.403502 -0.332281 -0.198707
-0.338743 -0.354467 -0.199765
-0.389766 -0.400702 -0.1911
-0.325696 -0.421643 -0.197294
-0.274234 -0.377381 -0.197174
-0.260982 -0.443856 -0.199444
-0.209465 -0.399144 -0.193846
-0.196242 -0.466005 -0.19992
-0.247381 -0.510033 -0.188493
-0.182674 -0.532354 -0.189877
-0.131434 -0.488075 -0.199925
-0.117815 -0.554191 -0.188594
-0.0666356 -0.510082 -0.19948
-0.310461 0.201062 0.151885
0.00163905 0.496511 0.19997
-0.0200373 0.560696 0.190453
0.0977775 0.340471 0.136938
-0.576198 0.0421738 0.184273
-0.565064 -0.025001 0.18893
-0.420944 0.42782 -0.173097
-0.456378 0.369797 -0.179896
-0.355317 0.319585 -0.198775
-0.501823 -0.0490078 0.199956
-0.553828 -0.0926038 0.190304
-0.319853 0.488261 -0.181644
-0.58489 0.109922 0.175927
0.367478 0.221726 -0.187045
0.42554 0.247963 -0.19986
0.431224 0.314552 -0.197131
0.485697 0.276066 -0.191201
0.480472 0.209734 -0.198524
0.313459 0.197209 -0.152273
-0.556852 -0.152256 -0.184461
[...]
POINT_DATA 1473
SCALARS sample_scalars double
LOOKUP_TABLE default
0
0
0
0.000165492
0.00547121
0.0136891
0.0188172
0.0237656
0.0310698
0.0300103
0.0291551
0.0296228
0.0261124
0.0237448
0.0187623
0.015057
0.00694848
7.95061e-05
0.00783699
0.0118681
0.0141893
0.0181422
0.00653044
0.0450599
0.0479826
0.0316043
0.025196
0.00599354
0.0161856
0.0380156
0.0598022
0.0934701
0.128172
0.151095
0.111982
0.085921
0.0561001
0.0360161
0.0286549
0.0201914
0.0144004
0.00251638
0.0286297
0.0391475
0.0479352
0.0252074
0.00879581
0.0227579
0.0214704
0.0344311
0.0367927
0.0353403
0.0338856
0.0289661
0.0247779
0.0200225
0.0158962
0.0120562
0.00820138
0.00558967
0.00330147
0.00165253
0.000661568
0.000165492
0.00743714
0.0135674
0.0190776
0.0232693
0.0201843
0.0253773
0.0201575
0.019593
0.0188726
0.0111296
0.0154922
0.0204006
0.0136624
0.0178447
0.0213044
0.0171549
0.0134783
0.00743714
0.0222551
0.00631245
0.0310726
0.0110985
0.0172149
0.0193119
0.0179778
0.0207292
0.0173009
0.0248132
0.0154447
0.137196
0.0184168
0.0397329
0.0423033
0.0214969
0.00389092
0.00145671
0.00419595
0.0166873
0.0196141
0.00172549
0.0114017
0.00490505
0.0118677
0.145407
0.0270589
0.0189667
0.014086
0.0316371
0.0143692
0.0184976
0.0143765
0.0269029
0.0125058
0.0621216
0.0809934
0.0218582
0.0166567
0.0127003
0.0727386
0.0270147
0.0132576
0.0250256
0.0181394
0.00776534
0.00936428
0.00920046
0.00842874
0.0201319
0.0138721
0.0624741
0.0427595
0.0136914
0.0843706
0.0186258
0.0291516
0.0194415
0.00940155
0.00527052
0.00956469
0.00508987
0.021944
0.0335372
0.0323568
0.0389471
0.0400997
0.0431636
0.0439843
0.044802
0.0441058
0.0453437
0.04476
0.0478788
0.0480723
0.0547188
0.0562392
0.0676123
0.070653
0.0878537
0.040831
0.0765672
0.112797
0.105644
0.147952
0.142919
0.192888
0.18727
0.245463
0.237
0.235764
0.249303
0.192319
0.177542
0.14348
0.149655
0.111577
0.109106
0.0818714
0.0736137
0.0577255
0.0578269
0.0419483
0.0389249
0.0386033
0.0298791
0.140509
0.02721
0.0232099
0.127424
0.0744958
0.16241
0.0620281
0.045789
0.117964
0.0472628
0.0322302
0.04068
0.0475675
0.024577
0.0214153
0.0225995
0.0211872
0.0203417
0.152893
0.110338
0.193025
0.0224601
0.0222251
0.0476991
0.0260437
0.0288107
0.00396558
0.00610655
0.0113014
0.0131573
0.0251457
0.0277257
0.0217424
0.0196818
0.01993
0.0136169
0.0140471
0.131582
0.0900352
0.021608
0.018328
0.017871
0.020945
0.0194117
0.0143463
0.0117979
0.00701925
0.00474364
0.00845086
0.0104334
0.00728937
0.00378188
0.00618755
0.0211013
0.00982588
0.0202593
0.0112719
0.0221704
0.0248306
0.0317832
0.0163647
0.0167926
0.00611909
0.104755
0.149092
0.00125754
6.42649e-05
0.00329953
0.0623831
0.0507749
0.0125461
0.0280837
0.0329268
0.0931303
0.116909
0.0108896
0.0214091
0.0176879
0.0191093
0.0158915
0.023755
0.0166272
0.0281995
0.021612
0.118031
0.161331
0.169272
0.137917
0.193392
0.155677
0.210749
0.0872946
0.170245
0.199775
0.122474
0.137443
0.094563
0.192504
0.104748
0.178743
0.185368
0.157219
0.150387
0.132546
0.12111
0.0198508
0.0118054
0.000461396
0.0294956
0.0336613
0.13904
0.108427
0.0947506
0.0805216
0.0648825
0.0487264
0.0654573
0.0289449
0.0495643
0.00653721
0.0144125
0.0351796
0.0192577
0.0613717
0.00545631
0.0847945
0.00943743
0.00583168
0.0211231
0.132586
0.173642
0.0280292
0.0309046
0.0384684
0.197847
0.16837
0.027174
0.0903586
0.0305643
0.024565
0.0140371
0.0226708
0.0278867
0.0243609
0.160806
0.165308
0.114041
0.111629
0.0818028
0.0779945
0.000328897
0.00909326
0.00617593
0.0133144
0.0248733
0.0368417
0.0451043
0.00738416
0.00160154
0.0138425
0.00650283
0.0115654
0.0053882
0.00743606
0.0186793
0.0140618
0.0574357
0.0513941
0.0726694
0.0571831
0.0320106
0.0393623
0.0627368
0.0500468
0.0555262
0.0361598
0.0398669
0.0240225
0.0257158
0.0128813
0.0128852
0.00579414
0.00411041
0.0188766
0.0176717
0.0222522
0.0263072
0.0347814
0.0353993
0.0182222
0.0359058
0.0412178
0.0400878
0.0398689
0.0421664
0.041091
0.0404761
0.0385913
0.0414804
0.0397518
0.0432229
0.0427042
0.0402877
0.0447055
0.0457545
0.0318962
0.0342509
0.000940668
0.0284256
0.0168903
0.00893712
0.000212587
0.0156533
0.0110867
0.0209323
0.0484638
0.0212991
0.108395
0.0260196
0.108953
0.0552019
0.0361372
0.00446764
0.00336309
0.125024
0.0808941
0.0173486
0.0206412
0.0441035
0.0021991
0.000177452
0.0231321
0.0383919
0.0439157
0.0423722
0.0250316
0.00742886
0.00534867
0.077837
0.0389674
0.00496119
0.00589836
0.0082836
0.0013078
0.038605
0.0208272
0.025083
0.0417093
0.027508
0.0418649
0.0284222
0.0447528
0.0405455
0.00441979
0.0429944
0.0397999
0.0285721
0.0256921
0.0381213
0.023871
0.0373057
0.02333
0.0348999
0.00724166
0.0257646
0.0320896
0.0376712
0.0310333
0.00213052
0.00133628
0.18535
0.163944
0.00390491
0.0608607
0.0215087
0.0043954
0.0232819
0.0459022
0.0134643
0.039903
0.00943739
0.0490317
0.0402252
0.235395
0.156753
0.0171387
0.0269927
0.0172155
0.0323308
0.0389893
0.0281651
0.0112838
0.00945251
0.000136895
0.000925489
0.0580101
0.0662337
0.146776
0.0162219
0.017324
0.0050935
0.162715
0.0199301
0.0286699
0.036913
0.0315352
0.00829819
0.009358
0.00575817
0.00924954
0.00503738
0.0457288
0.0116302
0.127172
0.0347202
0.0435799
0.0399968
0.0530401
0.0149044
0.141584
0.0231448
0.0235318
0.0401564
0.0307535
0.0272791
0.000753499
0.00403839
0.00712204
0.0243502
0.0310585
0.0270822
0.0143531
0.00818403
0.00344206
0.0164098
0.0202151
0.046405
0.223426
0.00433822
0.00438245
0.158546
0.0324436
0.0544473
0.0879478
0.0289582
0.0109934
0.154652
0.0142844
0.00623379
0.00867517
0.0140346
0.0468759
0.0490528
0.0391967
0.0250814
0.0515693
0.0388119
0.0338854
0.0307951
0.0156344
0.0318185
0.0284201
0.0502775
0.0804213
0.0368301
0.00198463
0.00509118
0.0015217
0.00441841
0.00473234
0.0123728
0.0885021
0.0189385
0.0133891
0.00285081
0.000298564
0.00190459
0.0100595
0.0132466
0.0111649
0.0122459
0.0785811
0.0221677
0.0108481
0.000267364
0.0448399
0.0425287
0.0309653
0.0267229
0.00281985
0.0141764
0.0334945
0.0112912
0.0212414
0.00990426
0.196193
0.0300942
0.00589334
0.067117
0.0600667
0.229637
0.192441
0.0403469
0.0344927
0.0238036
0.0580074
0.037833
0.0896448
0.0716474
0.0424759
0.0226063
0.0218253
0.0233819
0.0266092
0.0193148
0.0186874
0.0289996
0.152909
0.116373
0.151991
0.0518826
0.0553728
0.0498172
0.0434928
0.0671592
0.141714
0.0757558
0.102532
0.0442332
0.0194646
0.015521
0.0167383
0.0148436
0.00694849
0.000176735
0.000948402
0.000408773
0.000167471
0.006548
0.0290993
0.0363537
0.000897598
0.210576
0.173974
0.0220032
0.0195228
0.015799
0.0227299
0.0198283
0.0206711
0.0260199
0.0257615
0.106867
0.0179713
0.0156557
0.0300967
0.0304558
0.00667716
0.00102727
0.000852611
0.0199452
0.0370619
0.0412497
0.0438457
0.0436383
0.233196
0.104264
0.0250586
0.0522361
0.00864054
0.0157193
0.0723301
0.0672534
0.0407508
0.0112112
0.0112629
0.0111943
0.00912357
0.0216547
0.00687499
0.0152694
0.0214374
0.0209011
0.0179817
0.0418215
0.0462497
0.033899
0.0278295
0.0340503
0.0342134
0.169645
0.0935579
0.00371105
0.0377606
0.0245383
0.0184667
0.0153832
0.0209851
0.0123192
0.0111955
0.0173166
0.0373557
0.0350835
0.0639506
0.0164769
0.0419991
0.00608301
0.0772773
0.00467865
0.0100562
0.0150999
0.0124285
0.0203822
0.205996
0.00122866
0.0312159
0.0368438
0.0122307
0.0166484
0.0249607
0.0187442
0.0333569
0.0372011
0.0306713
0.00368502
0.033857
0.0431678
0.0391411
0.00183296
0.10592
0.190692
0.00370729
0.0189035
0.0781957
0.0487915
0.06477
0.0989691
0.125531
0.0146912
0.182616
0.155679
0.00989171
0.154867
0.133273
0.0967526
0.076023
0.0141335
0.0119979
0.0329895
0.0404651
0.039065
0.0079156
0.0385385
0.00232283
0.0250627
0.0204083
0.0386752
0.0403234
0.00760631
0.00499488
0.0130843
0.0184644
0.0102962
0.0183695
0.0189025
0.042091
0.0486829
0.102934
0.124945
0.0101145
0.0446376
0.0432338
0.0444105
0.0164164
0.0219545
0.0247517
0.0531424
0.0285203
0.0360983
0.00903969
0.00102089
0.016172
0.00819527
0.0249958
0.0127982
0.00905663
0.0100468
0.00695942
0.0148792
0.0174432
0.0191193
0.0180369
0.0194004
0.0213371
0.0129
0.0095958
0.00528177
0.0129906
0.0158219
0.0506196
0.0203406
0.0112262
0.0196603
0.0188376
0.108533
0.06613
0.0925574
0.0707446
0.110199
0.0248844
0.0243275
0.000257783
0.00744808
0.0583774
0.0144791
0.00220847
0.0303183
0.0280633
0.0180303
0.104739
0.00114125
0.0388029
0.04349
0.00340792
0.039932
0.048132
0.0277991
0.00135299
0.00793908
0.00853665
0.000515918
0.0209723
0.0256616
0.0239369
0.0240712
0.00131308
0.0154752
0.0103706
0.157055
0.0434276
0.00875312
0.0175922
0.021836
0.00142405
0.0207071
0.0520614
0.0390553
0.0133196
0.172571
0.0218991
0.0428348
0.00776436
0.033062
0.0348361
0.0112359
0.00173345
0.00359807
0.0811867
0.0247633
0.0125465
0.133334
0.00392512
0.0216064
0.00256191
0.0100489
0.0105003
0.0312495
0.0113065
0.0327345
0.00798694
0.0252948
0.0038628
0.0163425
0.00971358
0.010659
0.0439737
0.018015
0
0
0.00879145
0.00867282
0.0195818
0.00698047
0.0261927
0.089237
0.129386
0.0131883
0.112121
0.0619042
0.0706017
0.0202629
0.0470658
0.0127615
0.0200008
0.00253627
0.141853
0.0273276
0.0247789
0.123019
0.0164081
0.00855914
0.0771214
0.016871
0.0131947
0.013113
0.0436367
0.000418376
0.0179953
0.00881071
0.00852414
0.14454
0.0267025
0.0299438
0.000210861
0.0120502
0.0276091
0.0137406
0.0101497
0.0385571
0.0127672
0.00233404
0.0211555
0.0439077
0.00715974
0.013082
0.0191064
0.0338219
0.00315539
0.0279743
0.0056793
0.016179
0.0146352
0.00538714
0.0186041
0.0214354
0.00456979
0.0062445
0.00393417
0.00375115
0.0458635
0.0237762
0.100521
0.0119467
0.00416627
0.0473829
0.0142519
0.0298392
0.24906
0.150483
0.0242654
0.0141851
0.0465783
0.0532035
0.0308085
0.00452806
0.188771
0.04162
0.0434146
0.0650531
0.11533
0.0010545
0.0424193
0.016889
0.117941
0.0475759
0.0362569
0.0930431
0.00162895
0.0215262
0.0211656
0.0253059
0.0167779
0.023258
0.0271573
0.0111091
0.00344958
0.0120768
0.0135629
0.0192722
0.0157578
0.00870533
0.00054493
0.0755431
0.0201141
0.0149513
0.00928006
0.0846055
0.0338525
0.0387118
0.0308502
0.0192538
0.0425626
0.0375947
0.0164393
0.00184295
0
0
0.00846134
0.00846134
0.0281272
0.0198998
0.00719016
0.00535407
0.00808037
0.0228542
0.0145915
0.0118649
0.00296651
0.00441161
0.0109176
0.030819
0.0265292
0.0104824
0.043927
0.242046
0.100586
0.0390568
0.0247907
0.00809727
0.00103116
0.0146657
0.0618553
0.0128391
0.0928952
0.106834
0.0289095
0.000553994
0.0346981
0.0265214
0.0179258
0.036993
0.00143294
0.00478061
0.0372018
0.105005
0.0131405
0.0143254
0.00769575
0.0168272
0.0248932
0.0084036
0.0161114
0.00406898
0.0926444
0.0399461
0.025677
0.0419283
0.0161196
0.0342204
0.084981
0.182064
0.0203132
0.0412796
0.0360863
0.00780442
0.0112287
0.0275965
0.0229469
0.0220244
0.017569
0.00922694
0.0416601
0.0837249
0.0149803
0.00658027
0.0198114
0.00944904
0.00277537
0.00715361
0.0121569
0.0159767
0.0184282
0.175303
0.0602858
0.0349932
0.145758
0.0388936
0.0650209
0.0470678
0.0166584
0.0449789
0.00674566
0.0175707
0.0194574
0.0552188
0.0137585
0.0440934
0.0437727
0.0169374
0.00945471
0.0454823
0.189536
0.0370212
0.166003
0.110511
0.017435
0.00696474
0.0475745
0.0258544
0.0376629
0.017193
0.0193026
0.0422794
0.0375993
0.0372623
0.109601
0.058625
0.0141216
0.120159
0.0347576
0.0142531
0.0216195
0.0351274
0.0412695
0.0225307
0.00740889
0.00718744
0.0123862
0.0337874
0.0140932
0.0356405
0.0150352
7.6658e-06
0.0422611
0.0482289
0.0238833
0.00764856
0.042097
0.0336771
0.129896
0.0266224
0.026589
0.000533433
0.0131906
0.00372229
0.0318784
0.0253265
0.10822
0.0217193
0.0139251
0.0593442
0.0176992
0.0217821
0.0813897
0.162305
0.00522854
0.0260394
0.0143165
0.0465231
0.026531
0.0649647
0.0510521
0.0244718
0.0217277
0.125547
0.0558781
0.0756752
0.00873999
0.0455256
0.0400125
0.0193
0.0182062
0.0565128
0.0187859
0.0174724
0.00400539
0.0591303
0.022131
0.00881168
0.134117
0.0383086
0.0273329
0.0179318
0.110165
0.0166246
0.0128552
0.038467
0.0797295
0.00251458
0.0222422
0.00958866
0.0223391
0.0355462
0.0528491
0.0148489
0.0316909
0.00559689
0.0253542
0.215803
0.0260353
0.0107262
0.00703555
0.110341
0.0347793
0.0261582
0.0349532
0.0467276
0.0427353
0.0259034
0.0735857
0.0251023
0.0185984
0.00449772
0.00613887
0.0201893
0.0313496
0.208888
0.155391
0.0127827
0.0408883
0.0132348
0.0353437
0.00252429
0.0183932
0.0410675
0.0237035
0.044831
0.086344
0.0320309
0.0387526
0.0840517
0.0123959
0.128784
0.0182212
0.0306811
0.00860779
0.0091432
0.003746
0.0129281
0.00913062
0.155965
0.0413059
0.000599158
0.00198606
0
0.0145641
0.0410756
0.057531
0.00675665
0.00551487
0.0350328
0.0200021
0.0310956
0.0178754
0.00466014
0.0523495
0.0123475
0.0218109
0.00652058
0.0242242
0.0110433
0.0329911
0.143644
0.0331643
0.0266231
0.00938603
0.00159687
0.0283894
0.151018
0.0164429
0.0471727
0.0367251
0.0978667
0.0461068
0.0348638
0.000111038
0.0374678
0.00860015
0.0443509
0.035775
0.102674
0.0103749
0.0290823
0.0447756
0.0354329
0.0324434
0.0136637
0.0204845
0.0109971
0.0132709
0.0242783
0.146785
0.0378131
0.0748121
0.0407503
0.047144
0.139896
0.16001
0.150071
0.0381956
0.0134008
0.0111496
0.0417049
0.0157155
0.0368468
0.04768
0.0211426
0.0141692
0.00775127
0.0495442
0.195585
0.00561643
0.0315721
0.0243959
0.0161594
0.0246318
0.0185929
0.0293951
0.0725531
0.0200879
0.0131781
0.0407224
0.0456657
0.0499178
0.0471667
0.0389326
0.0152125
0.00768655
0.00228355
0.0563938
0.0206369
0.0371105
0.0157427
0.00367427
0.0305167
0.0503299
0.00885436
0.0227364
0.0254877
0.0129983
0.00991662
0.0114462
0.0343185
0.0154666
0.0129543
0.0500881
0.0326977
0.032183
0.0311464
0.00639413
0.0128492
0.169048
0.00172913
0.0283797
0.0199583
0.0155421
0.0369073
0.0333877
0.0390245
0.0453381
0.0175663
0.0133439
0.0510625
0.00921624
0.0328888
0.11657
0.154372
0.0927952
0.00768222
0.0208049
0.0187885
0
0.0583382
0.043236
0.0807021
0.0257767
0.00546813
0.0168948
0.137813
0.0694591
0.0042532
0.0173825
0.0382072
0.0505034
0.0626259
0.0789949
0.107589
0.167237
0.100762
0.188697
0.00707061
0.0484193
0.00627938
0.022031
0.00955303
0.0148146
0.0237846
0.00348412
0.0176405
0.0186455
0.0198798
0.0212377
0.0924771
0.0315967
0.142985
0.0437527
0.0171525
0.0231488
0.0378968
0.0102021
0.050712
0.0143584
0.0121399
0.0594429
0.196686
0.044269
0.0209004
0.0215628
0.200664
0.153042
0.0193266
0.0294176
0.0332399
0.0171846
0.0267853
0.0398331
0.0184333
0.00597704
0.0944332
0.0121455
0.00605832
0.0996128
0.0383342
0.00968818
0.0145531
0.0388279
0.0656647
0.00817514
0.00778952
0.0130613
0.0395959
0.0339915
0.0161426
0.00764081
0.167583
0.0027329
0.00206228
0.0401376
0.0144789
0.0484315
0.0109035
0.0174375
0.0103067
0.00100899
0.0158637
0.0261988
0.0323176
0.00364261
0.0522042
0.00964918
0.038911
0.0101717
0.0159921
0.00849169
0.00528556
0.152704
0.00806961
0.026912
0.0604412
0.0210628
0.0348573
0.0335171
0.116238
0.0187662
0.0203984
0.0391782
0.0423661
0.0354778
0.0379173
0.02359
0.0195329
0.0222899
0.0272311
0.0144441
0.0127845
0.0574524
0.0262641
0.0204243
0.0126552
0.0383767
0.0293657
0.00104447
0.0206272
0.0209612
0.00972569
