# vtk DataFile Version 2.0
Unstructured Grid Example
ASCII
 
DATASET UNSTRUCTURED_GRID
POINTS 209 double
0.5 2.44929e-17 0.1
-0.5 1.22465e-16 0.5
0.5 -0.0781831 0.062349
0.5 -0.0974928 -0.0222521
0.5 -0.0433884 -0.0900969
0.5 0.0433884 -0.0900969
0.5 0.0974928 -0.0222521
0.5 0.0781831 0.062349
-0.357143 1.08469e-16 0.442857
-0.214286 9.44728e-17 0.385714
-0.0714286 8.04768e-17 0.328571
0.0714286 6.64808e-17 0.271429
0.214286 5.24849e-17 0.214286
0.357143 3.84889e-17 0.157143
-0.5 -0.16235 0.472909
-0.5 -0.307106 0.39457
-0.5 -0.418583 0.273474
-0.5 -0.4847 0.122743
-0.5 -0.498292 -0.0412897
-0.5 -0.457887 -0.200848
-0.5 -0.367862 -0.338641
-0.5 -0.237974 -0.439737
-0.5 -0.0822973 -0.493181
-0.5 0.0822973 -0.493181
-0.5 0.237974 -0.439737
-0.5 0.367862 -0.338641
-0.5 0.457887 -0.200848
-0.5 0.498292 -0.0412897
-0.5 0.4847 0.122743
-0.5 0.418583 0.273474
-0.5 0.307106 0.39457
-0.5 0.16235 0.472909
-0.0101356 0.130424 0.274661
-0.0215713 -0.137744 0.276185
0.428061 0.00269419 -0.128747
-0.382414 -0.146496 -0.428622
0.399925 -0.0981041 -0.0999199
0.369084 -0.0467228 -0.145026
-0.365431 0.274045 -0.352093
0.422225 0.0866381 -0.0984057
-0.384128 -0.436647 -0.123039
0.236319 0.122003 0.165331
0.269513 -0.125906 0.145212
-0.37326 0.448162 0.0320149
0.411475 0.133968 -0.0197113
0.344696 0.136979 -0.086719
-0.363465 0.328623 0.300625
-0.374233 -0.33052 0.304927
0.434163 -0.123167 0.0281121
-0.284898 0.126341 0.394208
-0.293077 -0.131765 0.395878
0.324242 0.170291 0.00200855
0.253298 0.184866 -0.0727929
0.259977 0.119822 -0.15512
0.17193 0.17814 -0.147419
0.174024 0.0889338 -0.212534
0.0884098 0.155991 -0.213773
0.077826 0.0509803 -0.263992
0.0758072 0.236308 -0.12994
-0.00972755 0.127092 -0.276039
-0.0246642 0.00920433 -0.309729
0.0597029 -0.0719278 -0.266586
-0.0571432 -0.112654 -0.302566
0.0360811 -0.186644 -0.216132
-0.10264 -0.226154 -0.255291
-0.0394973 -0.277164 -0.151358
0.0728343 -0.243041 -0.11958
0.010104 -0.294319 -0.0311092
-0.120872 0.0931245 -0.33567
-0.116888 0.210443 -0.275596
-0.112718 -0.340083 -0.0585538
-0.0755303 -0.322263 0.0720159
0.0428954 -0.265186 0.0983664
-0.227875 -0.387318 0.0546144
0.378759 0.126907 0.0771081
-0.175696 -0.325973 0.175635
-0.170904 -0.153582 -0.334818
-0.228764 -0.266946 -0.286385
0.261234 0.0176293 -0.19471
-0.303441 -0.394253 0.148737
-0.227846 0.179256 -0.347644
-0.243703 0.0530433 -0.393926
-0.233579 0.291052 -0.264721
-0.120086 0.303712 -0.169962
-0.243723 0.36954 -0.146416
-0.148509 0.357147 -0.0402064
0.225671 0.207533 0.0302901
0.127105 -0.126989 0.214368
0.118412 0.134132 0.214087
0.0252943 0.229316 0.17733
-0.0949626 0.238159 0.239821
-0.0772605 0.305789 0.126455
0.00963325 0.290856 0.0557267
-0.194267 0.327539 0.188097
0.347212 0.0464387 -0.154277
0.262472 -0.0877598 -0.174148
0.327009 -0.129626 -0.108741
0.231196 -0.170497 -0.118305
0.280423 -0.185568 -0.0290646
0.161853 -0.211323 0.103388
0.147655 -0.131202 -0.202083
0.186872 -0.22265 -0.0341346
-0.150187 -0.121883 0.338819
-0.23657 -0.244825 0.309503
-0.236172 0.244654 0.309435
0.16596 -0.0169511 -0.233
-0.0215197 0.300967 -0.0682475
-0.366428 0.143275 -0.422964
0.434104 0.0614501 0.11041
-0.0550592 -0.259253 0.191016
-0.142841 0.12529 0.334438
-0.137859 -0.0325947 -0.353645
-0.325228 0.392137 0.176654
-0.0206684 0.231882 -0.203125
-0.358829 0.00403233 -0.443513
-0.168703 -0.318929 -0.182557
-0.251191 -0.391387 -0.084838
-0.245767 0.393399 0.0623299
0.155383 0.231034 -0.0565176
0.107095 0.240192 0.0918685
-0.369333 0.370965 -0.250699
-0.377322 0.432764 -0.126697
-0.368258 -0.289069 -0.341349
-0.373684 -0.447128 0.0458569
-0.298973 -0.358924 -0.217322
0.39501 -0.138582 -0.0309509
0.344845 -0.157638 0.0376059
0.415813 -0.0673395 0.115474
0.286012 0.162894 0.0889439
-0.386428 -0.227163 0.393741
-0.385684 0.22674 0.393641
-0.25185 -0.0700326 -0.394573
0.0433805 -0.207828 0.191566
-0.27715 -0.190035 -0.36427
-0.124668 -0.219332 0.272581
0.343147 -0.107405 0.122266
-0.273871 0.407251 -0.0433236
0.264531 -0.183639 0.0631319
-0.40896 -0.388097 -0.253556
0.0962644 -0.261455 0.00452792
-0.288668 -0.341527 0.236584
-0.399274 -0.41908 0.188956
-0.395125 -0.113205 0.443841
-0.394977 0.108937 0.444847
0.439656 0.117654 0.0395954
0.0590444 0.273974 -0.0364093
-0.0712 0.327481 0.0255937
-0.146441 0.35233 0.0666371
0.200952 0.185789 0.117111
0.150176 -0.195303 -0.139367
0.5 1.80411e-16 9.71445e-17
-0.5 0.34944 0.0289554
-0.5 -0.339908 -0.0860764
-0.5 -0.0692286 0.354501
-0.5 0.123728 -0.353452
-0.5 0.293542 -0.191781
-0.5 0.262784 0.24227
-0.5 -0.110133 -0.334893
-0.5 -0.3252 0.163339
-0.5 0.36013 0.157968
-0.5 0.229631 0.0986657
-0.5 0.113819 0.178432
-0.5 0.0880337 0.0303789
-0.5 -0.0375913 0.115699
-0.5 -0.0538731 -0.0364932
-0.5 0.0594471 -0.123406
-0.5 -0.216809 0.0436714
-0.5 -0.176829 0.222093
-0.5 0.224556 -0.0660357
-0.5 -0.0750806 -0.186047
-0.5 -0.193612 -0.0970433
-0.5 -0.254637 -0.240469
-0.5 0.148698 0.32023
-0.5 0.241541 -0.310332
-0.5 0.00336699 -0.390985
-0.5 0.375215 -0.0956857
-0.5 -0.372982 0.0404773
-0.5 -0.195315 0.345624
-0.5 -0.288735 0.274892
-0.5 0.167515 -0.211543
-0.5 -0.00149565 0.246069
-0.5 0.02295 -0.269282
-0.5 0.0498368 0.393464
-0.162971 0.00628783 0.00394427
0.135513 0.00894429 -0.0104894
-0.269247 -0.0362654 -0.180682
-0.289076 0.189272 -0.0103829
-0.286912 0.0517211 0.182419
0.355297 0.00266956 0.00412065
-0.00904072 -0.108989 -0.0186024
-0.020802 0.0515289 -0.108336
-0.302454 -0.157034 0.120956
-0.0107437 0.0829885 0.0723376
-0.166277 -0.159426 -0.0950288
-0.120808 0.172192 -0.0206097
-0.317041 0.143389 -0.188435
-0.142211 -0.0541873 0.172676
-0.343397 -0.194814 -0.175389
-0.163623 0.0880879 -0.178276
-0.337504 0.0225097 0.0166671
0.23593 -0.0651998 -0.0436624
0.246626 0.0614702 -0.042973
-0.15375 0.130699 0.133022
0.0560215 -0.0493994 0.104941
-0.359037 0.200912 0.180925
0.0813914 -0.0375796 -0.127326
-0.133587 -0.171926 0.0625661
0.239717 -0.00239796 0.0788626
-0.0556863 -0.083483 -0.15607
 
CELLS 621 3105
4 54 56 55 205
4 180 187 50 191
4 54 55 184 205
4 191 193 116 197
4 166 191 116 197
4 54 184 118 190
4 54 118 58 190
4 193 197 191 199
4 50 180 8 187
4 79 73 123 191
4 131 157 133 185
4 54 184 190 205
4 50 8 9 187
4 118 145 58 190
4 181 185 81 195
4 164 191 197 199
4 9 102 50 187
4 180 50 167 191
4 133 185 157 197
4 118 190 184 192
4 116 191 73 193
4 101 184 200 205
4 54 190 56 205
4 152 166 116 197
4 185 197 193 199
4 133 157 131 35
4 101 184 99 200
4 84 186 168 195
4 84 136 121 186
4 73 193 191 206
4 143 49 8 182
4 55 54 184 201
4 84 168 155 195
4 136 168 121 186
4 181 114 81 185
4 81 107 181 195
4 118 145 190 192
4 84 121 168 186
4 84 121 155 168
4 136 151 168 186
4 50 153 180 167
4 50 153 8 180
4 79 123 166 191
4 155 120 84 195
4 49 8 180 187
4 54 58 56 190
4 184 189 101 203
4 152 170 166 197
4 101 189 184 205
4 43 136 117 186
4 182 49 8 180
4 43 151 136 186
4 120 121 155 84
4 99 184 101 203
4 114 107 181 81
4 143 172 49 182
4 102 187 9 196
4 83 194 186 198
4 99 200 184 207
4 149 101 200 205
4 99 101 139 189
4 86 148 119 184
4 50 103 129 191
4 83 186 195 198
4 79 123 176 166
4 148 184 88 192
4 99 101 189 203
4 172 49 180 187
4 131 81 114 185
4 151 160 186 204
4 49 9 8 187
4 182 172 49 180
4 158 140 79 191
4 149 189 101 205
4 50 129 167 191
4 118 184 119 192
4 55 78 201 205
4 148 119 184 192
4 107 154 181 195
4 55 201 184 205
4 190 192 145 194
4 58 190 145 194
4 86 119 118 184
4 158 79 176 166
4 118 184 54 201
4 164 197 185 199
4 183 193 191 199
4 76 62 111 185
4 83 186 84 195
4 137 200 99 207
4 158 79 166 191
4 77 193 76 197
4 86 128 148 201
4 86 148 184 201
4 88 192 184 203
4 55 53 54 201
4 88 203 184 207
4 62 185 76 208
4 73 70 193 206
4 11 32 192 196
4 60 198 111 208
4 99 184 203 207
4 200 201 78 205
4 38 173 154 179
4 175 155 121 168
4 62 111 185 208
4 172 49 187 204
4 121 136 43 151
4 148 201 128 207
4 157 181 169 185
4 195 198 186 199
4 186 198 183 199
4 186 194 147 202
4 76 193 185 197
4 85 186 83 194
4 11 196 192 203
4 82 83 84 195
4 72 99 139 189
4 184 201 200 205
4 118 119 145 192
4 86 184 118 201
4 169 157 185 197
4 91 92 89 192
4 111 198 185 208
4 55 56 57 205
4 192 196 32 202
4 35 157 131 114
4 34 5 39 150
4 185 198 195 199
4 185 193 76 208
4 85 84 83 186
4 148 184 201 207
4 77 64 76 193
4 183 185 193 199
4 58 113 190 194
4 92 192 91 194
4 64 76 193 208
4 72 189 132 203
4 116 73 70 193
4 72 132 189 206
4 76 185 133 197
4 191 193 183 206
4 185 183 198 199
4 47 103 140 191
4 68 81 111 198
4 78 55 105 205
4 11 10 32 196
4 137 101 99 200
4 60 61 57 208
4 76 133 77 197
4 83 195 82 198
4 157 174 181 114
4 58 145 106 194
4 165 185 181 195
4 196 203 132 206
4 9 187 110 196
4 152 116 40 197
4 122 133 157 197
4 139 101 66 189
4 83 82 69 198
4 165 195 186 199
4 52 118 54 201
4 189 183 196 203
4 180 163 187 191
4 103 102 134 196
4 189 192 183 203
4 189 132 203 206
4 165 185 195 199
4 92 145 192 194
4 91 192 89 202
4 38 179 154 195
4 81 185 111 198
4 93 186 147 202
4 10 9 110 196
4 154 181 174 114
4 165 186 162 199
4 184 190 189 192
4 147 194 91 202
4 64 62 76 208
4 131 133 76 185
4 81 195 185 198
4 158 178 47 167
4 79 140 158 141
4 72 99 189 203
4 149 66 101 189
4 58 106 113 194
4 168 186 165 195
4 155 173 38 179
4 172 180 161 187
4 10 32 196 202
4 154 179 181 195
4 67 189 65 193
4 116 193 115 197
4 38 154 107 195
4 187 191 183 196
4 91 194 192 202
4 105 200 78 205
4 192 196 183 203
4 169 185 164 197
4 62 60 111 208
4 108 144 7 150
4 164 185 165 199
4 172 187 161 204
4 168 151 160 186
4 60 57 190 208
4 168 162 165 186
4 82 84 120 195
4 110 196 187 202
4 146 91 147 194
4 105 95 78 200
4 10 110 32 202
4 183 185 198 208
4 181 154 107 114
4 122 157 133 35
4 95 200 105 205
4 190 198 60 208
4 93 117 147 186
4 186 194 183 198
4 56 190 57 205
4 183 191 187 199
4 10 196 110 202
4 33 132 196 203
4 103 134 191 196
4 132 109 196 206
4 60 190 59 198
4 8 142 153 50
4 100 97 200 205
4 147 117 85 186
4 147 186 85 194
4 55 78 53 201
4 2 48 127 150
4 85 117 136 186
4 68 111 60 198
4 33 132 109 196
4 189 193 67 206
4 113 190 194 198
4 124 40 116 197
4 88 12 203 207
4 162 199 186 204
4 85 136 84 186
4 158 79 141 176
4 155 179 38 195
4 81 80 195 198
4 148 88 119 192
4 149 200 97 205
4 113 194 83 198
4 128 51 74 201
4 119 92 145 192
4 81 80 107 195
4 149 66 189 205
4 155 38 120 195
4 162 186 160 204
4 183 193 185 208
4 72 189 67 206
4 137 99 42 207
4 181 165 169 185
4 161 187 199 204
4 184 192 189 203
4 189 190 183 192
4 59 60 57 190
4 183 198 190 208
4 146 92 91 194
4 73 191 75 206
4 189 203 196 206
4 180 167 163 191
4 169 165 164 185
4 126 200 137 207
4 86 118 52 201
4 93 117 186 204
4 189 190 184 205
4 100 149 97 205
4 110 187 104 202
4 110 9 49 187
4 134 191 196 206
4 95 100 200 205
4 65 189 66 208
4 99 203 42 207
4 93 186 202 204
4 189 196 183 206
4 73 79 75 191
4 172 130 49 204
4 149 101 97 200
4 161 199 162 204
4 110 49 104 187
4 111 81 131 185
4 76 111 131 185
4 140 75 79 191
4 81 68 80 198
4 183 186 199 202
4 187 199 186 202
4 65 67 66 189
4 56 58 113 190
4 163 187 191 199
4 11 33 196 203
4 75 191 134 206
4 95 100 97 200
4 142 153 50 129
4 163 191 164 199
4 153 182 8 180
4 160 162 168 186
4 59 190 113 198
4 139 67 72 189
4 115 193 77 197
4 70 67 65 193
4 39 5 6 150
4 147 85 146 194
4 65 193 189 208
4 179 155 168 195
4 126 137 135 207
4 113 83 69 198
4 187 202 186 204
4 178 177 129 167
4 32 89 192 202
4 150 39 34 188
4 49 104 187 204
4 70 67 193 206
4 161 187 163 199
4 191 183 196 206
4 123 141 79 176
4 183 199 187 202
4 93 147 91 202
4 47 158 140 141
4 128 201 188 207
4 72 109 132 206
4 52 54 53 201
4 87 42 99 203
4 104 202 187 204
4 170 169 164 197
4 72 132 99 203
4 186 199 187 204
4 60 59 68 198
4 115 116 70 193
4 64 77 115 193
4 183 190 189 208
4 65 66 63 208
4 11 33 10 196
4 126 188 200 207
4 88 11 32 192
4 82 120 38 195
4 116 115 124 197
4 86 51 128 201
4 39 150 6 188
4 186 183 194 202
4 10 102 9 196
4 42 203 87 207
4 11 192 88 203
4 158 166 167 191
4 144 150 108 188
4 56 113 59 190
4 163 166 164 191
4 134 75 103 191
4 126 188 125 200
4 44 39 6 188
4 88 41 12 207
4 95 105 100 205
4 59 57 56 190
4 73 71 70 206
4 107 80 38 195
4 149 63 66 205
4 165 181 179 195
4 179 168 165 195
4 129 47 178 167
4 71 72 67 206
4 152 138 171 197
4 183 196 192 202
4 148 128 41 207
4 126 135 188 207
4 94 37 188 201
4 183 189 193 208
4 4 3 150 36
4 45 44 51 188
4 161 163 162 199
4 34 4 150 188
4 92 106 145 194
4 106 83 113 194
4 183 187 196 202
4 183 194 190 198
4 128 74 188 201
4 55 57 105 205
4 66 67 139 189
4 100 63 149 205
4 119 89 92 192
4 91 89 90 202
4 75 140 103 191
4 134 196 109 206
4 90 110 104 202
4 32 90 89 202
4 150 36 3 188
4 163 161 180 187
4 183 192 190 194
4 125 188 96 200
4 171 122 157 197
4 126 98 137 200
4 59 113 69 198
4 130 172 49 143
4 37 200 188 201
4 98 101 137 200
4 49 130 104 204
4 88 32 89 192
4 134 33 109 196
4 11 88 12 203
4 6 7 144 150
4 73 75 71 206
4 127 0 2 150
4 75 134 109 206
4 104 93 202 204
4 94 39 45 188
4 106 92 146 194
4 94 34 39 188
4 159 151 43 112
4 78 95 37 200
4 189 183 193 206
4 127 150 48 188
4 162 160 161 204
4 51 188 74 201
4 138 124 122 197
4 12 87 203 207
4 45 188 51 201
4 70 71 67 206
4 65 64 193 208
4 94 188 45 201
4 124 115 77 197
4 89 119 88 192
4 85 106 146 194
4 85 83 106 194
4 150 3 48 188
4 34 4 5 150
4 93 112 117 204
4 90 32 110 202
4 4 36 150 188
4 128 188 74 207
4 125 36 96 188
4 37 96 188 200
4 52 51 86 201
4 166 163 167 191
4 44 45 39 188
4 65 63 64 208
4 80 82 38 195
4 12 42 87 207
4 122 77 133 197
4 90 104 93 202
4 68 69 80 198
4 69 68 59 198
4 159 46 156 204
4 192 194 183 202
4 115 65 64 193
4 36 37 96 188
4 0 150 127 188
4 53 94 45 201
4 63 100 61 205
4 62 61 60 208
4 87 99 132 203
4 157 35 174 114
4 94 53 78 201
4 63 205 61 208
4 189 190 205 208
4 37 95 96 200
4 171 170 152 197
4 137 42 135 207
4 108 150 0 188
4 33 87 132 203
4 94 37 34 188
4 172 156 130 204
4 11 87 33 203
4 115 70 65 193
4 71 109 72 206
4 160 159 156 204
4 157 169 171 197
4 171 138 122 197
4 57 61 105 205
4 48 125 126 188
4 90 93 91 202
4 45 51 52 201
4 122 124 77 197
4 33 102 10 196
4 164 165 162 199
4 87 11 12 203
4 33 134 102 196
4 74 51 44 188
4 97 101 98 200
4 48 2 3 150
4 159 112 46 204
4 64 63 62 208
4 108 7 0 150
4 47 178 158 141
4 45 52 53 201
4 46 130 156 204
4 18 40 152 176
4 157 122 21 35
4 121 26 155 175
4 40 18 123 176
4 71 75 109 206
4 178 47 16 141
4 105 61 100 205
4 62 63 61 208
4 26 120 121 155
4 104 130 46 204
4 170 171 169 197
4 156 172 161 204
4 174 35 22 114
4 158 178 16 141
4 24 173 38 25
4 26 25 120 155
4 171 122 21 157
4 96 97 98 200
4 200 201 184 207
4 162 163 164 199
4 157 35 22 174
4 46 93 104 204
4 22 23 174 114
4 74 44 144 188
4 96 95 97 200
4 43 28 159 112
4 188 201 200 207
4 8 1 182 153
4 13 74 188 207
4 127 135 13 188
4 23 24 154 107
4 43 28 151 159
4 74 144 108 188
4 47 16 15 178
4 1 8 142 153
4 112 28 159 29
4 141 17 158 176
4 15 177 129 178
4 171 19 138 152
4 161 160 156 204
4 13 188 135 207
4 138 20 19 171
4 172 156 30 130
4 17 141 123 176
4 74 108 13 188
4 46 112 93 204
4 16 17 158 141
4 47 15 129 178
4 40 138 19 152
4 21 20 122 171
4 27 43 28 151
4 121 26 175 27
4 156 159 29 46
4 142 14 1 153
4 31 172 30 130
4 42 12 13 207
4 156 46 30 130
4 29 159 112 46
4 123 18 17 176
4 177 14 15 129
4 12 41 13 207
4 13 135 42 207
4 8 1 143 182
4 122 20 138 171
4 1 31 143 182
4 130 31 172 143
4 21 157 35 22
4 19 18 40 152
4 46 29 156 30
4 143 31 172 182
4 185 114 157 181
4 185 157 114 131
4 37 4 188 36
4 37 188 4 34
4 197 166 164 170
4 197 164 166 191
4 191 123 116 73
4 191 116 123 166
4 121 151 168 136
4 168 151 121 175
4 129 153 167 177
4 129 167 153 50
4 151 204 43 112
4 151 43 204 186
4 117 43 204 112
4 117 204 43 186
4 191 129 47 103
4 191 47 129 167
4 191 47 158 140
4 191 158 47 167
4 207 148 88 41
4 207 88 148 184
4 196 103 187 191
4 196 187 103 102
4 50 187 103 191
4 50 103 187 102
4 208 57 205 61
4 208 205 57 190
4 204 151 159 112
4 204 159 151 160
4 151 121 27 43
4 151 27 121 175
4 125 98 200 96
4 200 98 125 126
4 201 37 78 94
4 201 78 37 200
4 197 40 138 124
4 197 138 40 152
4 198 82 80 195
4 198 80 82 69
4 6 188 144 44
4 144 188 6 150
4 208 66 205 189
4 208 205 66 63
4 129 153 14 142
4 129 14 153 177
4 48 135 188 126
4 48 188 135 127
4 154 114 23 107
4 23 114 154 174
4 155 38 25 120
4 155 25 38 173
4 125 3 188 48
4 188 3 125 36
4 38 154 24 107
4 38 24 154 173
4 0 13 188 127
4 0 188 13 108
4 41 74 207 128
4 207 74 41 13
4 166 176 116 123
4 166 116 176 152
4 40 116 176 123
4 40 176 116 152
 
CELL_TYPES 621
10
10
10
10
10
10
10
10
10
10
10
10
10
10
10
10
10
10
10
10
10
10
10
10
10
10
10
10
10
10
10
10
10
10
10
10
10
10
10
10
10
10
10
10
10
10
10
10
10
10
10
10
10
10
10
10
10
10
10
10
10
10
10
10
10
10
10
10
10
10
10
10
10
10
10
10
10
10
10
10
10
10
10
10
10
10
10
10
10
10
10
10
10
10
10
10
10
10
10
10
10
10
10
10
10
10
10
10
10
10
10
10
10
10
10
10
10
10
10
10
10
10
10
10
10
10
10
10
10
10
10
10
10
10
10
10
10
10
10
10
10
10
10
10
10
10
10
10
10
10
10
10
10
10
10
10
10
10
10
10
10
10
10
10
10
10
10
10
10
10
10
10
10
10
10
10
10
10
10
10
10
10
10
10
10
10
10
10
10
10
10
10
10
10
10
10
10
10
10
10
10
10
10
10
10
10
10
10
10
10
10
10
10
10
10
10
10
10
10
10
10
10
10
10
10
10
10
10
10
10
10
10
10
10
10
10
10
10
10
10
10
10
10
10
10
10
10
10
10
10
10
10
10
10
10
10
10
10
10
10
10
10
10
10
10
10
10
10
10
10
10
10
10
10
10
10
10
10
10
10
10
10
10
10
10
10
10
10
10
10
10
10
10
10
10
10
10
10
10
10
10
10
10
10
10
10
10
10
10
10
10
10
10
10
10
10
10
10
10
10
10
10
10
10
10
10
10
10
10
10
10
10
10
10
10
10
10
10
10
10
10
10
10
10
10
10
10
10
10
10
10
10
10
10
10
10
10
10
10
10
10
10
10
10
10
10
10
10
10
10
10
10
10
10
10
10
10
10
10
10
10
10
10
10
10
10
10
10
10
10
10
10
10
10
10
10
10
10
10
10
10
10
10
10
10
10
10
10
10
10
10
10
10
10
10
10
10
10
10
10
10
10
10
10
10
10
10
10
10
10
10
10
10
10
10
10
10
10
10
10
10
10
10
10
10
10
10
10
10
10
10
10
10
10
10
10
10
10
10
10
10
10
10
10
10
10
10
10
10
10
10
10
10
10
10
10
10
10
10
10
10
10
10
10
10
10
10
10
10
10
10
10
10
10
10
10
10
10
10
10
10
10
10
10
10
10
10
10
10
10
10
10
10
10
10
10
10
10
10
10
10
10
10
10
10
10
10
10
10
10
10
10
10
10
10
10
10
10
10
10
10
10
10
10
10
10
10
10
10
10
10
10
10
10
10
10
10
10
10
10
10
10
10
10
10
10
10
10
10
10
10
10
10
10
10
10
10
10
10
10
10
10
10
10
10
10
10
10
10
10
10
10
10
10
10
10
10
10
10
10
10
10
10
10
10
10
10
10
10
10
10
10
10
10
10
10
10
10
10
10
10
 
POINT_DATA 209
SCALARS sample_scalars double
LOOKUP_TABLE default
0.026357
0.0688472
0.0416261
0.0429119
0.0232917
0.00175578
0.0222871
0.0245601
0.0682421
0.0644627
0.0620806
0.0502565
0.0384385
0.0311585
0.088308
0.0897525
0.0894844
0.0917403
0.0877118
0.0860138
0.0709494
0.0439826
0.0159036
0.0180096
0.0274751
0.0324366
0.027961
0.0268222
0.0298474
0.0331413
0.0320944
0.0455074
0.034104
0.0560903
0.0184962
0.033162
0.0351584
0.0251501
0.0273909
0.00021204
0.0748547
0.0280595
0.0277734
0.0226924
0.0243314
0
0.0267631
0.0763033
0.0272173
0.0479962
0.0816645
0
0
0
0
0.0159313
0.000702942
0.0205567
0.0138889
0.00193448
0.0236027
0.0404274
0.0458108
0.0538675
0.0615785
0.06063
0.0492085
0.0500924
0.00354996
0.0177008
0.0641445
0.066917
0.0474877
0.0660586
0.002673
0.0636877
0.048851
0.0682551
0.00762361
0.0792415
0.0176098
0.00544687
0.02641
0.022639
0.0236421
0.00970007
0
0.0380364
0.0183375
0.0202024
0.025981
0.0205655
0.0169805
0.0217173
0.0177565
0.020223
0.028037
0.0178051
0.00941056
0.0263669
0.0505979
0.00473649
0.0735044
0.0686056
0.0303685
0.0283238
0.00806188
0.0177014
0.0129643
0.0610682
0.0428351
0.0260073
0.0317798
0.0168646
0.00813922
0.0721081
0.0676151
0.0339016
0
0.0157118
0.0299713
0.0213733
0.0660831
0.0803131
0.0787882
0.0362821
0.0268998
0.0350322
0.0181514
0.087615
0.0345773
0.0274973
0.0505811
0.0506181
0.0732928
0.0354062
0.0102222
0.0205445
0.0812805
0.0314397
0.0767674
0.0829369
0.0838271
0.0517143
0.0220317
5.35328e-05
0.0201078
0.0215745
0.00496622
0.036279
0.0293424
0.0366115
0.0912352
0.0827918
0.0429196
0.0482096
0.0585301
0.0506491
0.0709175
0.0489729
0.0532777
0.068559
0.0362885
0.0669875
0.0679706
0.0666437
0.0869409
0.0745351
0.0491242
0.0655963
0.0809351
0.0688189
0.0670817
0.0459628
0.0386302
0.0412561
0.0946682
0.0966315
0.0830034
0.0543133
0.0646398
0.0592003
0.066782
0.055377
0.0325835
0.0600719
0.0413794
0.0628234
0.0254489
0.0421997
0.0376059
0.067275
0.0467266
0.0587657
0.0405573
0.052508
0.0539732
0.0679931
0.0460998
0.0604217
0.00189051
0
0.055566
0.0480979
0.0605133
0.0457268
0.0538126
0.0232215
0.0506488
