# vtk DataFile Version 2.0
Unstructured Grid Example
ASCII
 
DATASET UNSTRUCTURED_GRID
POINTS 1238 double
0.7 6.12323e-17 0.25
-0.3 6.12323e-17 0.25
0.7 -0.0556302 0.243732
0.7 -0.108471 0.225242
0.7 -0.155872 0.195458
0.7 -0.195458 0.155872
0.7 -0.225242 0.108471
0.7 -0.243732 0.0556302
0.7 -0.25 1.2633e-16
0.7 -0.243732 -0.0556302
0.7 -0.225242 -0.108471
0.7 -0.195458 -0.155872
0.7 -0.155872 -0.195458
0.7 -0.108471 -0.225242
0.7 -0.0556302 -0.243732
0.7 -3.06162e-17 -0.25
0.7 0.0556302 -0.243732
0.7 0.108471 -0.225242
0.7 0.155872 -0.195458
0.7 0.195458 -0.155872
0.7 0.225242 -0.108471
0.7 0.243732 -0.0556302
0.7 0.25 -2.67969e-16
0.7 0.243732 0.0556302
0.7 0.225242 0.108471
0.7 0.195458 0.155872
0.7 0.155872 0.195458
0.7 0.108471 0.225242
0.7 0.0556302 0.243732
-0.244444 6.12323e-17 0.25
-0.188889 6.12323e-17 0.25
-0.133333 6.12323e-17 0.25
-0.0777778 6.12323e-17 0.25
-0.0222222 6.12323e-17 0.25
0.0333333 6.12323e-17 0.25
0.0888889 6.12323e-17 0.25
0.144444 6.12323e-17 0.25
0.2 6.12323e-17 0.25
0.255556 6.12323e-17 0.25
0.311111 6.12323e-17 0.25
0.366667 6.12323e-17 0.25
0.422222 6.12323e-17 0.25
0.477778 6.12323e-17 0.25
0.533333 6.12323e-17 0.25
0.588889 6.12323e-17 0.25
0.644444 6.12323e-17 0.25
-0.3 -0.0556302 0.243732
-0.3 -0.108471 0.225242
-0.3 -0.155872 0.195458
-0.3 -0.195458 0.155872
-0.3 -0.225242 0.108471
-0.3 -0.243732 0.0556302
-0.3 -0.25 1.2633e-16
-0.3 -0.243732 -0.0556302
-0.3 -0.225242 -0.108471
-0.3 -0.195458 -0.155872
-0.3 -0.155872 -0.195458
-0.3 -0.108471 -0.225242
-0.3 -0.0556302 -0.243732
-0.3 -3.06162e-17 -0.25
-0.3 0.0556302 -0.243732
-0.3 0.108471 -0.225242
-0.3 0.155872 -0.195458
-0.3 0.195458 -0.155872
-0.3 0.225242 -0.108471
-0.3 0.243732 -0.0556302
-0.3 0.25 -2.67969e-16
-0.3 0.243732 0.0556302
-0.3 0.225242 0.108471
-0.3 0.195458 0.155872
-0.3 0.155872 0.195458
-0.3 0.108471 0.225242
-0.3 0.0556302 0.243732
-0.248396 0.176297 -0.177255
0.649154 -0.212431 -0.131807
0.648268 -0.0249873 -0.248748
0.174557 -0.0505532 0.244835
0.227777 0.0478929 0.24537
-0.247862 -0.135957 -0.209799
0.651543 0.211681 -0.133008
-0.254123 0.248493 0.0274087
-0.247858 -0.248371 -0.0284922
0.394444 -0.0478893 0.24537
0.0611171 0.0478671 0.245375
0.394451 0.0478508 0.245378
0.00662087 -0.0503592 0.244875
0.649055 -0.236082 0.0822505
0.644622 0.233557 0.0891688
-0.251543 -0.211681 0.133008
-0.244885 0.0214156 -0.249081
-0.105606 0.047742 0.245399
-0.241084 0.175904 0.177645
-0.110717 -0.0515183 0.244634
0.505556 -0.0478893 0.24537
0.283333 -0.0478893 0.24537
0.505556 0.0478649 0.245375
0.648961 -0.177097 0.176456
0.648112 0.176352 0.1772
-0.253707 -0.21207 -0.132387
-0.237587 0.235087 -0.0850524
0.663128 0.0819682 -0.23618
0.649115 0.248683 -0.0256289
0.642489 -0.248951 -0.0228728
0.647318 -0.136008 -0.209766
-0.250479 -0.132859 0.211775
0.607076 -0.0478433 0.245379
0.613177 0.0467715 0.245586
-0.216667 0.0478893 0.24537
-0.209257 -0.0473026 0.245484
0.283349 0.0478948 0.245369
0.255556 0.0940397 0.231639
0.199939 0.0940331 0.231641
0.227741 0.136731 0.209296
0.283394 0.136731 0.209295
0.255565 0.174368 0.179153
0.199875 0.17436 0.179161
0.227704 0.205534 0.142323
0.171979 0.205524 0.142337
0.199841 0.229056 0.100167
0.255668 0.229034 0.100218
0.227717 0.244046 0.0542367
0.171947 0.244038 0.0542726
0.199798 0.249922 0.0062638
0.255618 0.249922 0.00624709
0.227713 0.246449 -0.0419868
0.171863 0.246455 -0.0419526
0.199837 0.233776 -0.0885933
0.255641 0.233761 -0.0886339
0.227692 0.212313 -0.131998
0.171854 0.212316 -0.131992
0.199737 0.18291 -0.170422
0.14387 0.182919 -0.170414
0.17178 0.146653 -0.202467
0.227663 0.14664 -0.202476
0.115892 0.146669 -0.202455
0.143818 0.104898 -0.226928
0.0880636 0.18291 -0.170423
0.0879252 0.104915 -0.22692
0.115854 0.0592101 -0.242887
0.0599604 0.0592284 -0.242883
0.0878897 0.0113017 -0.249744
0.143781 0.0112851 -0.249745
0.115818 -0.0370444 -0.24724
0.171709 -0.0370641 -0.247237
0.0599187 -0.0370354 -0.247242
0.0878534 -0.0839852 -0.235471
0.0319567 -0.0839663 -0.235477
0.0598886 -0.127776 -0.21488
0.00399848 -0.127758 -0.21489
0.0319219 -0.166776 -0.186241
0.0877978 -0.166796 -0.186224
0.0598421 -0.199539 -0.150612
0.115697 -0.199553 -0.150594
0.0877668 -0.224814 -0.109356
0.143606 -0.224822 -0.109339
0.115672 -0.241664 -0.0640198
0.171513 -0.24167 -0.0639982
0.0599008 -0.241651 -0.0640696
0.0877517 -0.249467 -0.0163209
0.031953 -0.249465 -0.0163481
0.199452 -0.224832 -0.109319
0.227349 -0.241677 -0.0639716
0.255303 -0.224843 -0.109296
0.283211 -0.241686 -0.0639352
0.311167 -0.224853 -0.109275
0.339083 -0.241695 -0.0639009
0.255245 -0.249474 -0.016213
0.367061 -0.224859 -0.109264
0.339122 -0.19959 -0.150545
0.0598197 -0.247947 0.0319713
0.0041054 -0.247957 0.0318974
0.395037 -0.199605 -0.150526
0.367093 -0.166839 -0.186185
0.394963 -0.241704 -0.0638684
-0.0239429 -0.0839813 -0.235472
0.0318979 -0.237171 0.0790571
0.0876536 -0.237162 0.0790844
-0.0239542 -0.249473 -0.0162244
0.36699 -0.24948 -0.0161199
0.422852 -0.249482 -0.0160898
0.394901 -0.247911 0.0322508
-0.0239611 -0.166761 -0.186255
0.423009 -0.166859 -0.186166
0.395065 -0.127825 -0.214851
-0.0239148 -0.237155 0.0791039
0.450988 -0.127845 -0.214838
0.423043 -0.0840093 -0.235462
0.450858 -0.241719 -0.0638118
0.0597629 -0.21754 0.123191
0.1155 -0.217529 0.123212
0.45079 -0.247898 0.0323497
0.422779 -0.237052 0.0794116
0.366974 -0.237065 0.079373
0.311258 0.17437 0.179151
0.283558 0.212306 -0.132008
0.311505 0.233758 -0.0886412
0.339438 0.2123 -0.132017
0.367386 0.23376 -0.088635
0.395334 0.212295 -0.132026
0.367378 0.182874 -0.170462
0.423296 0.182858 -0.170479
0.423282 0.233761 -0.088632
0.395328 0.24646 -0.0419225
0.395321 0.146568 -0.202528
0.45125 0.146561 -0.202534
0.45122 0.246461 -0.041916
0.423271 0.249919 0.006353
0.0320217 0.104938 -0.22691
0.367124 -0.0839879 -0.23547
0.394855 -0.217357 0.123515
0.338962 -0.217383 0.12347
0.450648 -0.217337 0.12355
0.3112 -0.166833 -0.18619
0.0876247 -0.189808 0.162705
0.0318816 -0.189764 0.162756
0.14335 -0.189792 0.162724
0.479157 0.249919 0.00635845
0.451222 0.244013 0.0543859
0.478934 -0.166884 -0.186145
0.395101 -0.0370238 -0.247243
0.451021 -0.0370534 -0.247239
0.479185 0.233762 -0.0886292
0.14368 -0.16681 -0.18621
0.339218 -0.0370173 -0.247244
0.199619 0.0112446 -0.249747
0.171225 -0.217516 0.123236
0.199074 -0.189775 0.162743
0.144144 0.174336 0.179184
0.116245 0.20551 0.142357
0.00405279 0.0592424 -0.242879
-0.0238916 0.104961 -0.226899
-0.0518639 0.0592561 -0.242876
-0.0798117 0.104984 -0.226889
-0.0518371 0.14675 -0.202397
0.0883966 0.174311 0.179208
0.060499 0.205497 0.142376
0.032661 0.174285 0.179234
0.0047445 0.205481 0.142399
0.0325968 0.229035 0.100214
-0.0231882 0.229026 0.100235
0.00468348 0.244037 0.0542765
-0.0511388 0.244031 0.0543034
-0.0232493 0.249921 0.00628569
-0.0510571 0.205444 0.142453
-0.0791057 0.24992 0.00631523
-0.0512067 0.246456 -0.0419457
0.00467021 0.24645 -0.0419833
-0.106984 0.244019 0.0543578
0.422728 -0.189529 0.16303
0.478408 -0.18954 0.163017
0.50692 -0.127865 -0.214826
0.50647 -0.217296 0.123622
-0.107081 0.246458 -0.0419323
-0.107764 0.146773 -0.20238
0.507094 0.244012 0.0543878
0.479157 0.228971 0.100361
-0.107796 0.0592711 -0.242872
0.395348 0.244013 0.0543822
-0.0233479 0.233772 -0.0886027
0.367161 0.0113433 -0.249743
0.115471 -0.155015 0.196139
0.534868 -0.16691 -0.186121
0.450576 -0.154628 0.196444
0.506296 -0.154604 0.196462
0.394577 -0.154733 0.196361
0.534673 0.229036 0.100213
0.506947 0.20533 0.142617
0.45123 0.205351 0.142587
0.479153 0.174091 0.179422
0.534907 0.174065 0.179447
0.535043 0.249919 0.00636302
0.423408 0.174085 0.179428
0.226952 -0.217501 0.123261
0.254774 -0.189749 0.162774
0.226914 -0.154962 0.196181
0.2826 -0.154938 0.196199
0.310919 -0.237091 0.0792952
0.395491 0.205344 0.142596
0.339396 0.146607 -0.202501
0.227406 -0.199586 -0.150551
0.0604842 0.244039 0.0542684
0.227529 -0.0370709 -0.247236
0.311297 0.0112985 -0.249745
0.311278 -0.0840326 -0.235454
0.199112 -0.237136 0.0791624
-0.0797757 0.183039 -0.170284
-0.135705 0.183058 -0.170264
0.199586 -0.0840519 -0.235447
0.506877 -0.19966 -0.150453
0.423254 0.104768 -0.226988
0.479201 0.104753 -0.226995
0.507184 0.146559 -0.202535
0.535149 0.104743 -0.227
0.563131 0.14656 -0.202534
0.53516 0.182865 -0.170471
-0.0798426 0.011315 -0.249744
-0.135781 0.0113273 -0.249743
-0.107818 -0.0370559 -0.247238
-0.163764 -0.0370495 -0.247239
-0.1358 -0.0840374 -0.235452
0.507148 0.0590034 -0.242937
0.116374 0.136674 0.209333
0.339101 0.136708 0.209311
0.0325551 0.233754 -0.0886525
0.0604492 0.246458 -0.0419359
0.00451297 0.212304 -0.132011
0.450995 0.136366 0.209533
-0.160878 0.147911 -0.20155
-0.161963 0.0588573 -0.242973
0.560198 0.057949 -0.243191
0.534725 0.0109303 -0.249761
0.0882957 0.233777 -0.0885902
0.339217 0.0592966 -0.242866
0.283357 0.059247 -0.242878
-0.107591 0.212443 -0.131788
-0.159048 0.213214 -0.130536
0.558985 -0.126745 -0.215489
0.534504 -0.0838351 -0.235524
0.559266 -0.198834 -0.151542
0.534805 -0.224942 -0.109091
0.589514 -0.0835443 -0.235628
-0.191744 -0.0827689 -0.235901
-0.158027 -0.126156 -0.215835
-0.105812 -0.127292 -0.215167
-0.134984 -0.166866 -0.18616
-0.192788 -0.164772 -0.188016
-0.161434 -0.198944 -0.151398
-0.106962 -0.199467 -0.150708
-0.139068 -0.225007 -0.108958
-0.0808925 -0.224964 -0.109046
-0.108473 -0.241749 -0.0636966
-0.161832 -0.242054 -0.0625277
-0.135694 -0.249505 -0.0157287
0.25514 -0.115476 0.221733
0.310476 -0.11568 0.221626
0.19905 -0.114429 0.222275
0.597135 0.18538 -0.167732
0.560537 0.212845 -0.131137
0.613356 0.145591 -0.203232
0.422211 -0.115108 0.221924
-0.21472 -0.0347769 -0.247569
0.592082 0.00922005 -0.24983
0.590809 -0.224983 -0.109007
0.559009 -0.242129 -0.0622361
-0.19277 -0.24968 -0.0126388
-0.161706 -0.24778 0.0332451
-0.107052 -0.247877 0.03251
-0.135509 -0.236948 0.0797212
-0.190051 -0.236644 0.0806197
-0.163739 -0.217196 0.123798
-0.107869 -0.217192 0.123805
-0.136999 -0.191132 0.161147
-0.0800589 -0.189891 0.162608
-0.107745 -0.153626 0.197228
-0.0507439 -0.153445 0.197369
[...]
POINT_DATA 1238
SCALARS sample_scalars double
LOOKUP_TABLE default
0.951844
0
0.943641
0.930791
0.923846
0.884793
0.922518
0.924985
0.951674
0.970378
0.981802
0.990173
0.997345
1.00276
1.00708
1.00314
1.01792
1.03933
1.0548
1.04482
1.03142
1.01636
1.00698
0.999495
0.991839
0.98318
0.978207
0.970549
0.96203
0.0555556
0.111111
0.166667
0.213062
0.262381
0.316368
0.368862
0.420475
0.471315
0.522154
0.571921
0.626518
0.679796
0.734975
0.788453
0.842932
0.897415
0.0559822
0.111964
0.167947
0.223903
0.277186
0.325622
0.367917
0.402662
0.432965
0.457151
0.474692
0.494258
0.507563
0.513367
0.510555
0.501574
0.483782
0.460142
0.430702
0.399439
0.36049
0.32145
0.274359
0.222629
0.167947
0.111964
0.0559822
0.48229
0.939658
0.958038
0.439107
0.50217
0.493135
0.996478
0.354897
0.398367
0.646969
0.34889
0.662559
0.29257
0.879604
0.94336
0.261126
0.522856
0.206041
0.209091
0.193859
0.75774
0.542439
0.770612
0.872393
0.928139
0.455556
0.432188
1.00049
0.963039
0.906906
0.947868
0.153748
0.857166
0.875939
0.0997633
0.106377
0.555719
0.535229
0.480668
0.515441
0.568356
0.549612
0.496187
0.543727
0.496744
0.53961
0.589867
0.574265
0.527672
0.574316
0.615876
0.613226
0.575259
0.611852
0.654744
0.653847
0.613696
0.646562
0.607283
0.636941
0.67149
0.604862
0.623692
0.575415
0.599486
0.604821
0.598583
0.6113
0.634146
0.613732
0.635128
0.59555
0.604697
0.585826
0.591104
0.569479
0.562968
0.590048
0.566694
0.588446
0.562843
0.580958
0.555457
0.558748
0.529717
0.516186
0.487605
0.593071
0.570829
0.603953
0.592981
0.639198
0.640959
0.567746
0.688466
0.672781
0.480049
0.446192
0.715742
0.678037
0.689969
0.564191
0.435455
0.450884
0.465718
0.65821
0.704398
0.669407
0.542737
0.728232
0.711797
0.403291
0.760037
0.738483
0.738989
0.403931
0.425806
0.716519
0.680412
0.633223
0.602464
0.690345
0.699253
0.733866
0.742109
0.782285
0.767074
0.812048
0.786647
0.742988
0.793862
0.83922
0.78912
0.749226
0.583146
0.709951
0.648624
0.599424
0.698557
0.666413
0.392966
0.376396
0.414058
0.798671
0.757489
0.780186
0.746485
0.789406
0.833784
0.590491
0.730762
0.669716
0.458525
0.463442
0.452156
0.453636
0.576876
0.563621
0.563607
0.547817
0.545383
0.408112
0.407194
0.364731
0.368052
0.410763
0.376495
0.420691
0.392517
0.438734
0.327617
0.420485
0.457595
0.480177
0.373075
0.667097
0.719502
0.81278
0.722858
0.44913
0.528819
0.810733
0.78403
0.545331
0.709825
0.494635
0.779251
0.384682
0.83394
0.691709
0.724256
0.636909
0.837195
0.800605
0.748352
0.765299
0.819601
0.850091
0.710513
0.509052
0.512638
0.476334
0.529557
0.590229
0.696072
0.753908
0.632948
0.453757
0.669207
0.747346
0.689675
0.511121
0.524122
0.508294
0.626932
0.81034
0.827064
0.866008
0.884583
0.912067
0.933525
0.906683
0.552378
0.54083
0.546993
0.53715
0.527672
0.884966
0.413897
0.622412
0.514027
0.503468
0.523394
0.731109
0.513898
0.5355
0.920097
0.874964
0.542914
0.768095
0.725866
0.499368
0.479914
0.862093
0.843377
0.859655
0.831444
0.895742
0.522105
0.498033
0.508092
0.485275
0.48609
0.472151
0.473853
0.462656
0.485858
0.459402
0.438906
0.425671
0.507599
0.559849
0.454123
0.959514
0.915287
0.97798
0.667096
0.524163
0.927011
0.881126
0.838605
0.403638
0.380823
0.398428
0.353673
0.334553
0.304133
0.326399
0.277855
0.303975
0.25438
0.298638
0.223846
0.203759
0.1652
0.491877
0.398336
0.152368
0.248738
0.300664
0.391844
0.355878
0.613838
0.583767
0.591277
0.675985
0.550828
0.338065
0.245268
0.376059
0.440939
0.464082
0.421829
0.722124
0.770706
0.775369
0.823579
0.701021
0.800554
0.890134
0.731646
0.614498
0.35847
0.788157
0.805486
0.853838
0.816616
0.864614
0.824926
0.83044
0.777404
0.763684
0.36751
0.317088
0.388466
0.786454
0.841136
0.874254
0.891762
0.903243
0.529132
0.49245
0.505168
0.61629
0.621348
0.577861
0.354729
0.541949
0.542767
0.518082
0.513087
0.535657
0.703095
0.705772
0.666487
0.62038
0.661994
0.682967
0.634039
0.656752
0.548127
0.464992
0.426686
0.666911
0.656693
0.613677
0.590491
0.797076
0.569772
0.560036
0.590193
0.663036
0.646438
0.589754
0.560482
0.533962
0.508322
0.582204
0.763038
0.781966
0.730998
0.825289
0.867702
0.858318
0.951084
0.790401
0.531529
0.683938
0.608163
0.609599
0.641243
0.623203
0.561997
0.554671
0.578503
0.535033
0.451325
0.339208
0.285542
0.275284
0.230142
0.266867
0.224465
0.177478
0.266822
0.318753
0.27136
0.321777
0.304771
0.54119
0.399722
0.299154
0.72312
0.651927
0.838934
0.885889
0.904042
0.862283
0.607929
0.716584
0.49339
0.47335
0.836217
0.714847
0.450603
0.592863
0.823867
0.730297
0.359143
0.404245
0.426288
0.877862
0.152516
0.755732
0.668075
0.642099
0.673153
0.490484
0.532495
0.67658
0.704595
0.715351
0.688054
0.50981
0.538754
0.498373
0.643275
0.537275
0.374584
0.504265
0.577605
0.774292
0.701154
0.779578
0.8431
0.853699
0.207562
0.481326
0.740209
0.422446
0.153688
0.261827
0.310578
0.9535
0.318226
0.356488
0.430638
0.453001
0.390467
0.388117
0.93108
0.973468
0.477025
0.455165
0.811345
0.51583
0.497845
0.515942
0.93815
0.971325
0.512463
0.940536
0.769083
0.837875
0.571047
0.546126
0.253605
0.878026
0.555302
0.343845
0.321912
0.481529
0.467735
0.249427
0.225817
0.180534
0.696836
0.750421
0.887086
0.487532
0.214626
0.821292
0.804837
0.118285
0.921065
0.858752
0.340882
0.887419
0.450187
0.335088
0.911955
1.00967
0.102732
0.1028
0.854692
0.347499
0.907026
0.959975
0.198539
0.525109
0.904148
0.883598
0.474427
0.42904
0.498489
0.418073
1.02016
0.926261
0.254309
0.947328
0.880661
0.918467
0.909519
0.940558
0.293213
0.516832
0.902248
0.168504
0.503738
0.366576
0.954542
0.4677
0.0574975
0.0579614
0.900609
0.915453
0.350106
0.35847
0.491382
0.538755
0.593541
0.645059
0.703765
0.753708
0.812239
0.146425
0.895096
0.817001
0.98781
1.02648
0.924436
0.980842
0.9597
0.985739
0.9415
0.984153
0.940845
0.880584
0.97776
0.957096
0.995097
0.971454
0.965114
0.975576
0.961745
0.974539
0.961056
0.945981
0.94548
0.959601
0.938245
0.929713
0.956708
0.931944
0.981091
0.939222
0.930127
0.976316
0.96212
0.950575
0.952104
0.947624
0.929852
0.977567
0.976563
0.993626
0.931284
0.926908
0.927609
0.941091
0.933215
0.944944
0.989496
0.928266
0.984436
0.933357
0.959988
0.946968
0.925744
0.997404
1.00954
0.915655
0.917478
0.981026
0.963902
0.967099
0.987439
1.02724
0.950306
0.926593
1.00421
0.994038
0.925442
0.984727
0.973086
1.01266
0.448563
0.153174
0.401534
0.228759
0.460896
0.374852
0.0590277
0.277093
0.350529
0.310663
0.442741
0.146247
0.410985
0.364491
0.318424
0.313246
0.267539
0.263777
0.315278
0.27077
0.217013
0.230332
0.286077
0.172806
0.194386
0.163746
0.115443
0.113052
0.16824
0.06292
0.126803
0.185349
0.235016
0.251516
0.308351
0.340491
0.294426
0.361976
0.367
0.214189
0.325056
0.376073
0.225524
0.414581
0.364828
0.349103
0.408448
0.459394
0.393428
0.413699
0.194675
0.270456
0.420881
0.35212
0.0960768
0.322439
0.464751
0.187164
0.386575
0.231943
0.270981
0.422773
0.0987373
0.193349
0.554867
0.361298
0.750377
0.243908
0.378395
0.487348
0.470854
0.675865
0.698106
0.307934
0.824455
0.63168
0.777551
0.395289
0.576846
0.380998
0.587723
0.489651
0.814332
0.872153
0.34461
0.604131
0.419229
0.666484
0.51333
0.316847
0.346759
0.832883
0.434937
0.772059
0.452745
0.699531
0.696924
0.502794
0.221688
0.534372
0.41093
0.297296
0.742989
0.188541
0.342005
0.843906
0.771464
0.793483
0.622703
0.425069
0.289426
0.648209
0.677998
0.548591
0.358727
0.571615
0.581991
0.227462
0.28127
0.411602
0.438835
0.745954
0.685124
0.553974
0.477053
0.319209
0.852626
0.424963
0.311454
0.469764
0.858544
0.161687
0.625782
0.387581
0.912259
0.587998
0.832734
0.752099
0.320486
0.452885
0.488108
0.495557
0.890696
0.691372
0.454325
0.442231
0.789735
0.529477
0.439786
0.559677
0.836515
0.735961
0.567529
0.645198
0.130776
0.56874
0.463633
0.861605
0.233354
0.2562
0.434027
0.22032
0.34383
0.405084
0.632079
0.521107
0.673004
0.385892
0.766138
0.497558
0.533387
0.672752
0.496598
0.722979
0.844454
0.333032
0.578459
0.898627
0.793755
0.454853
0.614067
0.697032
0.941698
0.339065
0.894032
0.295183
0.3799
0.53333
0.267569
0.689479
0.52406
0.275643
0.627458
0.654488
0.761189
0.579996
0.418317
0.357377
0.752846
0.351923
0.812749
0.311456
0.423601
0.421763
0.611343
0.852192
0.666026
0.755422
0.852809
0.879772
0.514077
0.38714
0.658555
0.511157
0.81401
0.628005
0.509049
0.702499
0.812578
0.679335
0.854646
0.305555
0.626442
0.602636
0.481179
0.878572
0.282253
0.362943
0.731482
0.7101
0.850455
0.409963
0.744689
0.6849
0.775468
0.474592
0.345342
0.496679
0.433014
0.24912
0.903943
0.596203
0.456355
0.230917
0.359359
0.205879
0.815084
0.379316
0.514932
0.400812
0.405143
0.853443
0.212315
0.595667
0.429072
0.751571
0.757376
0.592896
0.440641
0.380596
0.4425
0.389957
0.563097
0.39642
0.639476
0.518263
0.723393
0.587215
0.45471
0.64551
0.780657
0.38201
0.4172
0.504204
0.307236
0.758992
0.530425
0.529511
0.49155
0.393593
0.524583
0.412802
0.576216
0.425764
0.820244
0.265059
0.525806
0.361921
0.309488
0.749304
0.474372
0.549568
0.459288
0.530944
0.646153
0.621366
0.858316
0.189712
0.348989
0.759839
0.496242
0.959569
0.664351
0.58943
0.509938
0.366545
0.596227
0.750888
0.808801
0.27819
0.23328
0.495364
0.895934
0.201455
0.131748
0.63508
0.471986
0.338729
0.6802
0.335059
0.824561
0.399692
0.486716
0.870774
0.901751
0.709328
0.516559
0.663272
0.728766
0.46992
0.608564
0.576905
0.697969
0.707231
0.282337
0.294467
0.507789
0.632652
0.601653
0.296159
0.411817
0.630167
0.523945
0.162313
0.89254
0.713854
0.69149
0.689999
0.912494
0.768412
0.880815
0.716501
0.532251
0.614392
0.469538
0.814554
0.358228
0.641004
0.71395
0.469777
0.78703
0.636028
0.929022
0.363829
0.416859
0.81793
0.127681
0.372043
0.198221
0.485874
0.818062
0.441156
0.216108
0.338502
0.78798
0.43624
0.847995
0.768937
0.190212
0.900138
0.612735
0.899707
0.513343
0.398042
0.533739
0.42913
0.625885
0.267196
0.741072
0.736358
0.454339
0.721884
0.393391
0.254034
0.260676
0.403183
0.333752
0.500348
0.812904
0.814648
0.868699
0.563225
0.876114
0.851859
0.305913
0.458421
0.798632
0.752245
0.655748
0.530308
0.334711
0.37304
0.427162
0.66802
0.519325
0.680898
0.530219
0.426803
0.486387
0.571088
0.80708
0.571376
0.604723
0.910711
0.622361
0.300674
0.295504
0.345717
0.469406
0.393845
0.505714
0.302075
0.77801
0.34082
0.470494
0.628375
0.401494
0.342875
0.908239
0.763235
0.281048
0.897929
0.420764
0.500625
0.517555
0.222181
0.561388
0.791826
0.689713
0.563838
0.581895
0.463792
0.792385
0.404706
0.432136
0.69862
0.361668
0.658771
0.328945
0.455835
0.405078
0.823816
0.354932
0.188769
0.664873
0.335052
0.721793
0.28551
0.259071
0.41919
0.507497
0.526241
0.784883
0.603592
0.809464
0.439582
0.670159
0.348427
0.847521
0.493475
0.545106
0.916305
0.562713
0.39957
0.896753
0.696744
0.552873
0.50482
0.44786
0.441707
0.70886
0.64032
0.572055
0.77989
0.447828
0.556116
0.674853
0.316106
0.609713
0.737934
0.722982
0.866894
0.679248
0.676135
0.501114
0.763192
0.642229
0.356867
0.571
0.376907
0.457834
0.866263
0.330563
0.397613
0.470333
0.353764
0.627636
0.803505
0.272566
0.501516
0.105642
0.355815
0.8991
0.443924
0.560329
0.379158
0.413789
0.252295
0.190006
0.627455
0.454696
0.486377
0.442734
0.869074
0.471387
0.266539
0.86259
0.302211
0.464023
0.30569
0.33934
0.791193
0.386541
0.806695
0.643263
0.239305
0.846981
0.147996
0.566922
